ITEM: TIMESTEP
1000
ITEM: NUMBER OF ATOMS
23933
ITEM: BOX BOUNDS pp pp pp
0.0000000000000000e+00 1.0000000000000000e+03
0.0000000000000000e+00 1.0000000000000000e+03
0.0000000000000000e+00 1.0000000000000000e+03
ITEM: ATOMS id type xs ys zs
185 2 0.0902605 0.164073 0.0187512
188 2 0.092211 0.166915 0.0191998
178 2 0.0879777 0.161038 0.0199158
173 2 0.0860007 0.161989 0.0209656
184 2 0.0902317 0.161766 0.0196673
186 2 0.0911002 0.160598 0.0211141
200 2 0.0968693 0.1623 0.0211608
207 2 0.0990818 0.162478 0.0216586
169 2 0.0850102 0.163515 0.0210309
191 2 0.0935138 0.165006 0.0194857
206 2 0.0986144 0.164764 0.0206315
219 2 0.103281 0.165157 0.0216821
177 2 0.087867 0.166736 0.0194739
174 2 0.0863713 0.167677 0.020216
197 2 0.0958836 0.166549 0.0200244
211 2 0.100837 0.166042 0.0211377
222 2 0.103751 0.167309 0.0217992
168 2 0.0840077 0.169279 0.0214713
183 2 0.0901037 0.169329 0.0193904
193 2 0.0946562 0.168465 0.0197557
208 2 0.099508 0.169148 0.0208547
213 2 0.101234 0.168834 0.0212414
218 2 0.10272 0.170071 0.0215835
444 2 0.0861668 0.171168 0.0212262
453 2 0.0891456 0.171596 0.0203021
458 2 0.0909934 0.171422 0.0196215
465 2 0.095148 0.17308 0.0198943
464 2 0.0943936 0.171152 0.0197079
468 2 0.0972347 0.171343 0.0203529
473 2 0.0991936 0.170872 0.0207929
481 2 0.103435 0.172521 0.0217626
456 2 0.0902527 0.175579 0.0218072
451 2 0.0883434 0.174243 0.0217281
459 2 0.0914888 0.173704 0.0214256
470 2 0.0984437 0.176091 0.0206692
482 2 0.104132 0.174893 0.0219416
461 2 0.0931789 0.177801 0.0220207
483 2 0.104356 0.178989 0.0220342
478 2 0.102063 0.176902 0.0214949
474 2 0.099844 0.180417 0.0210296
479 2 0.102498 0.180917 0.0216341
472 2 0.0991791 0.182325 0.0208989
475 2 0.100286 0.186306 0.0211895
480 2 0.102542 0.185331 0.0216891
476 2 0.101502 0.187803 0.0214794
477 2 0.101935 0.189937 0.0215991
181 2 0.089336 0.154188 0.0238008
176 2 0.0870135 0.157386 0.0235193
180 2 0.0883661 0.157354 0.0221983
187 2 0.0918778 0.159467 0.0224076
195 2 0.0950499 0.158441 0.0245057
171 2 0.0856123 0.160973 0.0223822
196 2 0.0955253 0.160954 0.0221098
202 2 0.0977378 0.161132 0.0226077
205 2 0.0986064 0.159965 0.0240545
226 2 0.104534 0.162505 0.0233026
215 2 0.102163 0.161489 0.0236034
227 2 0.105402 0.161337 0.0247495
154 2 0.0819819 0.164633 0.0242878
165 2 0.083848 0.162754 0.0233068
235 2 0.107932 0.163191 0.02365
150 2 0.0803467 0.167139 0.0244084
160 2 0.0822973 0.166175 0.02252
233 2 0.106744 0.166298 0.0224684
239 2 0.10893 0.166597 0.0229629
247 2 0.111025 0.166974 0.0234359
261 2 0.114769 0.166176 0.0242698
234 2 0.107407 0.168684 0.0226355
242 2 0.109774 0.169089 0.0231718
259 2 0.114644 0.169368 0.0242673
263 2 0.116272 0.168622 0.0246276
431 2 0.0806991 0.171609 0.0232523
487 2 0.106277 0.173158 0.0224109
493 2 0.108272 0.171232 0.0228495
435 2 0.0818274 0.173861 0.0236548
440 2 0.0832593 0.175694 0.0241319
446 2 0.0865003 0.175857 0.0231842
443 2 0.0855448 0.173716 0.0223681
494 2 0.108561 0.17542 0.0229474
499 2 0.112834 0.174834 0.0239073
445 2 0.0862435 0.178677 0.0247429
457 2 0.0904367 0.178393 0.0232326
488 2 0.106509 0.177258 0.0225027
496 2 0.110715 0.176724 0.0234473
501 2 0.113841 0.178644 0.0241728
502 2 0.114746 0.176532 0.0243557
452 2 0.0886094 0.18015 0.0247586
489 2 0.106823 0.180239 0.0226041
486 2 0.105054 0.181806 0.0222206
505 2 0.115682 0.180345 0.0246061
500 2 0.113065 0.180691 0.0240185
466 2 0.0955612 0.182216 0.0235674
484 2 0.104605 0.183909 0.0221406
492 2 0.107284 0.183523 0.0227417
498 2 0.11255 0.184215 0.0239382
503 2 0.114889 0.18258 0.0244498
491 2 0.107034 0.185697 0.0227075
485 2 0.105044 0.187155 0.022273
495 2 0.110191 0.184631 0.0234096
469 2 0.0982505 0.188428 0.0242893
490 2 0.106893 0.188061 0.0226997
497 2 0.112132 0.189641 0.0238992
504 2 0.114944 0.188754 0.0245252
663 2 0.0994503 0.191058 0.0239242
680 2 0.107455 0.19025 0.0228491
682 2 0.109308 0.190432 0.0232694
686 2 0.111344 0.192288 0.0237483
671 2 0.103824 0.19328 0.02206
678 2 0.106716 0.195317 0.0227339
685 2 0.110334 0.194729 0.023545
691 2 0.114583 0.192928 0.0244864
676 2 0.105544 0.197225 0.0224887
681 2 0.108668 0.197011 0.023192
688 2 0.112157 0.197634 0.0239864
692 2 0.114742 0.197596 0.02457
670 2 0.103211 0.199262 0.0247622
679 2 0.106906 0.200794 0.0228328
683 2 0.109604 0.201612 0.0234505
687 2 0.111863 0.201322 0.0239576
684 2 0.109793 0.206011 0.0235381
689 2 0.113387 0.205898 0.0243488
690 2 0.113424 0.20844 0.024383
864 2 0.112001 0.211187 0.0240895
867 2 0.112731 0.213164 0.0242747
870 2 0.114368 0.214587 0.024659
1024 2 0.124587 0.232534 0.0243473
1032 2 0.127033 0.233421 0.0236176
1042 2 0.129753 0.233362 0.0240354
1046 2 0.131738 0.232057 0.0245666
1029 2 0.125937 0.234578 0.0244421
20 2 0.0902416 0.149621 0.0263908
190 2 0.0928552 0.150778 0.0266117
179 2 0.0882129 0.152726 0.0258627
182 2 0.0897888 0.151904 0.0250958
172 2 0.0857528 0.155319 0.0270571
175 2 0.0868283 0.156182 0.0248144
189 2 0.0926553 0.154733 0.0249912
194 2 0.0947329 0.156765 0.026103
199 2 0.096787 0.156105 0.0273995
170 2 0.0850184 0.159036 0.0248782
162 2 0.083254 0.159139 0.0272484
204 2 0.0982894 0.158289 0.0256518
210 2 0.100502 0.158467 0.0261497
223 2 0.1039 0.159153 0.0264971
230 2 0.106113 0.159331 0.026995
318 2 0.141716 0.159567 0.0268002
161 2 0.0823577 0.16245 0.0256451
214 2 0.101846 0.159813 0.0252006
243 2 0.109828 0.161693 0.0257452
237 2 0.108484 0.160347 0.0266942
246 2 0.110696 0.160526 0.027192
250 2 0.11204 0.161872 0.026243
255 2 0.114253 0.16205 0.0267409
307 2 0.136844 0.160263 0.0272796
311 2 0.138762 0.161043 0.0263106
324 2 0.14402 0.162271 0.0267138
248 2 0.111172 0.163039 0.0247961
256 2 0.11457 0.163725 0.0251436
274 2 0.121207 0.16426 0.0266371
288 2 0.127329 0.163521 0.0270507
292 2 0.130234 0.163496 0.026505
301 2 0.134005 0.162672 0.026196
295 2 0.132824 0.164011 0.025368
320 2 0.142509 0.163002 0.0255781
144 2 0.0785409 0.167814 0.0263429
147 2 0.0800221 0.165452 0.0263138
271 2 0.11954 0.1674 0.0253513
275 2 0.121753 0.167579 0.0258493
284 2 0.125763 0.167522 0.0265665
298 2 0.133264 0.16714 0.0257912
303 2 0.135072 0.167352 0.0259612
306 2 0.136696 0.166951 0.0252392
313 2 0.139265 0.167363 0.0256467
323 2 0.143893 0.165312 0.0266236
421 2 0.0765131 0.170625 0.0272319
277 2 0.121861 0.170038 0.0258545
291 2 0.129705 0.16809 0.0269417
309 2 0.137824 0.168376 0.0272609
417 2 0.0752445 0.172916 0.0270003
510 2 0.118055 0.173205 0.0250696
513 2 0.120738 0.172859 0.0256479
517 2 0.123019 0.172536 0.0260286
520 2 0.124338 0.171136 0.0262523
522 2 0.125123 0.173446 0.0263633
527 2 0.127644 0.173493 0.0267183
532 2 0.129615 0.171477 0.0269266
544 2 0.135841 0.171197 0.0275142
427 2 0.0790842 0.17593 0.0256189
433 2 0.0812305 0.175746 0.0248179
515 2 0.121985 0.175936 0.0259459
529 2 0.128134 0.176 0.0267748
534 2 0.130138 0.173964 0.0269709
542 2 0.135477 0.175347 0.0274717
434 2 0.0812695 0.178206 0.026067
506 2 0.117458 0.177015 0.0249733
524 2 0.126304 0.178437 0.026585
531 2 0.128686 0.178579 0.0268249
540 2 0.133755 0.178728 0.0273027
442 2 0.0845508 0.180737 0.0263403
514 2 0.121408 0.181238 0.0258231
521 2 0.12512 0.181111 0.0264668
528 2 0.12782 0.181062 0.0267384
538 2 0.133043 0.18096 0.0272311
543 2 0.13578 0.179269 0.0274926
450 2 0.0877301 0.182541 0.026271
447 2 0.0866652 0.183652 0.027162
455 2 0.0896647 0.183042 0.0259133
462 2 0.0933541 0.183303 0.0248494
509 2 0.1178 0.181825 0.0250776
512 2 0.120272 0.183658 0.0256169
518 2 0.123103 0.183816 0.0261542
523 2 0.125727 0.184081 0.0265272
539 2 0.133642 0.18388 0.0272819
467 2 0.0964135 0.185479 0.0249964
507 2 0.117576 0.184605 0.0250739
511 2 0.119885 0.186326 0.0255855
516 2 0.122272 0.185849 0.0260182
525 2 0.126863 0.186636 0.0266346
530 2 0.128686 0.184608 0.026813
535 2 0.130479 0.187086 0.0269773
536 2 0.132611 0.185331 0.0271818
541 2 0.134367 0.187195 0.0273438
545 2 0.136341 0.186295 0.0275317
471 2 0.0985609 0.189041 0.0261706
508 2 0.117707 0.187494 0.0251365
519 2 0.124108 0.187338 0.0262867
526 2 0.127395 0.189506 0.0266725
533 2 0.129999 0.189652 0.026927
537 2 0.132786 0.189909 0.0271893
664 2 0.0996644 0.19222 0.0269295
704 2 0.121672 0.19156 0.0259763
713 2 0.126098 0.192765 0.0265522
709 2 0.124143 0.190363 0.0262906
731 2 0.134724 0.191604 0.0273687
699 2 0.118598 0.194619 0.0254105
710 2 0.12424 0.194795 0.0263628
717 2 0.128776 0.192968 0.0268049
723 2 0.131502 0.193182 0.0270618
729 2 0.133866 0.193468 0.0272841
666 2 0.101713 0.195941 0.027006
668 2 0.102214 0.197074 0.0251806
694 2 0.116259 0.195604 0.0248923
697 2 0.11745 0.197783 0.0251835
712 2 0.125184 0.196429 0.0264575
718 2 0.129453 0.195694 0.0268633
721 2 0.130958 0.197714 0.0270013
727 2 0.133724 0.198068 0.0274377
672 2 0.103937 0.200814 0.0265117
693 2 0.115949 0.199705 0.024864
701 2 0.119669 0.199341 0.0256968
706 2 0.122115 0.198825 0.0261449
720 2 0.129985 0.199566 0.0269056
725 2 0.132738 0.200141 0.0273348
674 2 0.105273 0.203358 0.026567
698 2 0.117665 0.20179 0.0252692
700 2 0.119371 0.20224 0.0256497
707 2 0.122422 0.203158 0.0261701
705 2 0.121702 0.201516 0.0260866
711 2 0.124503 0.202708 0.0263815
714 2 0.126777 0.202881 0.0265961
719 2 0.129461 0.20278 0.0268501
677 2 0.106396 0.205815 0.0265605
695 2 0.116829 0.206346 0.0251207
702 2 0.120068 0.206547 0.0258209
708 2 0.123988 0.206276 0.0263271
715 2 0.127249 0.205771 0.0266357
722 2 0.131087 0.205334 0.0273053
696 2 0.117438 0.208993 0.025288
851 2 0.107471 0.210135 0.027111
875 2 0.115784 0.211128 0.0249434
878 2 0.117474 0.212073 0.0253348
703 2 0.121361 0.2098 0.026039
886 2 0.121811 0.211641 0.0260588
898 2 0.126248 0.210226 0.0265328
894 2 0.125031 0.211889 0.0264147
716 2 0.128661 0.209539 0.0269772
903 2 0.128864 0.211771 0.0272194
855 2 0.108489 0.212852 0.0272443
879 2 0.117619 0.214674 0.0253871
883 2 0.120278 0.212507 0.0258487
899 2 0.126744 0.21464 0.0268659
859 2 0.109979 0.215495 0.0270617
873 2 0.115367 0.216469 0.0249037
888 2 0.122159 0.216308 0.0260838
891 2 0.124626 0.216575 0.0265099
901 2 0.127795 0.217167 0.0273695
863 2 0.111889 0.218187 0.0271535
874 2 0.115704 0.220169 0.0250104
881 2 0.118936 0.219129 0.025604
885 2 0.121174 0.218653 0.0259677
897 2 0.125315 0.220223 0.026931
868 2 0.113033 0.220818 0.0266613
876 2 0.11691 0.221874 0.0252502
887 2 0.122098 0.222798 0.0262847
871 2 0.114782 0.224511 0.0272055
880 2 0.118194 0.225524 0.025598
882 2 0.119382 0.223651 0.0257395
890 2 0.123572 0.224988 0.0270648
895 2 0.125194 0.223544 0.0274573
884 2 0.120456 0.228077 0.0263918
889 2 0.122738 0.227867 0.0257846
893 2 0.124997 0.227422 0.026736
904 2 0.129326 0.227685 0.0269668
912 2 0.131256 0.228246 0.026437
1002 2 0.116327 0.231286 0.0271263
877 2 0.117005 0.229758 0.0264841
1014 2 0.121067 0.23057 0.0251628
896 2 0.125265 0.228669 0.0249949
1050 2 0.133908 0.231196 0.0260984
1005 2 0.118219 0.231989 0.0266466
1013 2 0.120865 0.232872 0.0259234
1044 2 0.130802 0.23392 0.0260252
1055 2 0.135426 0.232959 0.027392
1009 2 0.119465 0.236054 0.0273362
1019 2 0.123185 0.234774 0.0256174
1020 2 0.123763 0.23672 0.0259715
1045 2 0.130815 0.236061 0.0270665
1027 2 0.125336 0.237377 0.0255582
1030 2 0.125947 0.239117 0.0258621
1037 2 0.128892 0.239106 0.0261016
1039 2 0.129564 0.237299 0.0256006
1025 2 0.12469 0.240249 0.0267055
1036 2 0.128716 0.242047 0.0274718
1040 2 0.129721 0.240332 0.0272183
22 2 0.0911472 0.145054 0.0289807
17 2 0.0893399 0.14607 0.0300261
15 2 0.0888335 0.148371 0.0287492
29 2 0.0932812 0.148503 0.0279157
31 2 0.0946227 0.148517 0.0295157
30 2 0.0937072 0.146229 0.0292198
12 2 0.087843 0.149897 0.0288146
192 2 0.0943194 0.152213 0.0278619
166 2 0.0839018 0.15702 0.028171
167 2 0.0839194 0.154898 0.029974
198 2 0.0964701 0.154429 0.0289968
212 2 0.100895 0.154786 0.0299925
225 2 0.104452 0.15631 0.0295413
216 2 0.102239 0.156132 0.0290434
285 2 0.12628 0.156982 0.030207
297 2 0.132863 0.156913 0.0293577
314 2 0.139623 0.156965 0.0284289
316 2 0.140661 0.155614 0.0291348
330 2 0.146578 0.156502 0.0292542
335 2 0.148594 0.155711 0.0298637
342 2 0.150778 0.15458 0.0301981
348 2 0.153387 0.156976 0.0299664
155 2 0.0819933 0.158817 0.0292821
221 2 0.103583 0.157478 0.0280944
229 2 0.105796 0.157656 0.0285922
281 2 0.124153 0.157988 0.0301301
290 2 0.128214 0.158639 0.0291839
293 2 0.130473 0.157728 0.0293019
305 2 0.135791 0.157494 0.0286978
321 2 0.142878 0.157303 0.0280713
329 2 0.145916 0.159202 0.0275748
333 2 0.147958 0.159005 0.0281399
341 2 0.150745 0.157755 0.0291226
350 2 0.15399 0.158905 0.029704
146 2 0.079972 0.161884 0.0298825
157 2 0.082022 0.160624 0.0276861
253 2 0.11275 0.159866 0.0284885
262 2 0.115121 0.160882 0.0281877
266 2 0.117175 0.160222 0.0294842
269 2 0.118678 0.162406 0.0277365
270 2 0.119535 0.160111 0.0301681
286 2 0.126477 0.16091 0.0283691
280 2 0.124108 0.161733 0.0283614
296 2 0.132846 0.160655 0.0276339
336 2 0.14873 0.162532 0.0280524
343 2 0.151177 0.160398 0.0286624
337 2 0.149301 0.16033 0.0281969
346 2 0.152705 0.161835 0.0287427
358 2 0.15837 0.161663 0.03026
145 2 0.0787585 0.164883 0.0290492
279 2 0.122223 0.162803 0.02827
331 2 0.146753 0.163853 0.0281427
339 2 0.150026 0.164989 0.0287343
345 2 0.152003 0.163668 0.028644
353 2 0.155702 0.164789 0.0292762
362 2 0.159517 0.164112 0.0300066
326 2 0.145201 0.166776 0.0275542
334 2 0.148346 0.166413 0.0288785
338 2 0.149769 0.167576 0.0292851
344 2 0.151401 0.166827 0.0292866
363 2 0.159683 0.166329 0.0300312
138 2 0.076334 0.169063 0.0299556
299 2 0.133631 0.168365 0.0275754
319 2 0.141911 0.169215 0.0281794
325 2 0.144335 0.169734 0.0287574
332 2 0.14782 0.168561 0.0290126
347 2 0.152745 0.169219 0.0299591
354 2 0.155891 0.168658 0.0301591
546 2 0.137641 0.170916 0.0276845
556 2 0.14131 0.171185 0.02803
570 2 0.146989 0.17087 0.0289603
572 2 0.148148 0.173365 0.0295849
411 2 0.073075 0.174507 0.0296439
420 2 0.0760219 0.176182 0.0281063
550 2 0.138634 0.175741 0.0277687
549 2 0.138125 0.173968 0.0277242
557 2 0.141828 0.173704 0.0280739
563 2 0.144262 0.175461 0.0285372
574 2 0.149558 0.175786 0.030248
418 2 0.0753839 0.177494 0.0297502
554 2 0.140472 0.178531 0.0279365
562 2 0.143354 0.177488 0.0284394
567 2 0.146103 0.177028 0.0292584
571 2 0.147894 0.178813 0.0299717
428 2 0.0793717 0.180075 0.0283266
548 2 0.138116 0.179277 0.0277129
553 2 0.139997 0.180594 0.0278876
560 2 0.142496 0.179353 0.0283549
565 2 0.145235 0.179132 0.0291684
430 2 0.0798832 0.182791 0.0302736
438 2 0.0829388 0.183138 0.0280589
547 2 0.13784 0.184509 0.0276766
558 2 0.141993 0.18252 0.0284978
564 2 0.144633 0.182288 0.0292818
568 2 0.146152 0.184229 0.0299018
436 2 0.0822249 0.185196 0.0299411
441 2 0.0841715 0.18506 0.0286428
449 2 0.0873681 0.185361 0.027803
454 2 0.0896624 0.187072 0.0279517
551 2 0.139011 0.186445 0.0279542
559 2 0.14219 0.185447 0.0287968
566 2 0.145303 0.18646 0.0297908
448 2 0.0868405 0.187944 0.0292647
460 2 0.091669 0.18847 0.028032
463 2 0.093922 0.1896 0.0279016
552 2 0.139988 0.189788 0.0285229
561 2 0.143238 0.187604 0.0292738
555 2 0.140626 0.187512 0.0285123
632 2 0.0879679 0.190477 0.0301884
650 2 0.0938677 0.192424 0.0293379
657 2 0.0972165 0.191009 0.0275887
736 2 0.137413 0.190504 0.0278453
747 2 0.142734 0.192725 0.0295294
752 2 0.145058 0.191339 0.0300739
645 2 0.0932036 0.193933 0.0303022
654 2 0.0960299 0.193436 0.029176
656 2 0.0966599 0.195293 0.0297724
733 2 0.135523 0.194496 0.0276432
740 2 0.139308 0.193355 0.0286111
750 2 0.144338 0.194834 0.0301205
660 2 0.0987909 0.196032 0.0285775
741 2 0.139599 0.195784 0.028888
746 2 0.142559 0.197709 0.0298634
735 2 0.137149 0.198742 0.02845
734 2 0.136321 0.200286 0.028347
739 2 0.138798 0.199074 0.028938
743 2 0.141207 0.200122 0.0296951
665 2 0.101536 0.201404 0.0283462
669 2 0.102911 0.203388 0.0280491
737 2 0.137605 0.201704 0.0288233
742 2 0.140379 0.202723 0.0296825
673 2 0.10424 0.2058 0.0279019
726 2 0.132952 0.205981 0.0278798
730 2 0.133898 0.204144 0.0279912
738 2 0.13867 0.204359 0.0293413
667 2 0.10201 0.207321 0.0297234
675 2 0.105444 0.208163 0.0278186
724 2 0.131882 0.207772 0.0277299
732 2 0.134906 0.206658 0.0284815
728 2 0.133792 0.208434 0.028318
839 2 0.103107 0.210437 0.0299198
908 2 0.130635 0.211664 0.027705
919 2 0.134251 0.210756 0.0286391
843 2 0.104442 0.212373 0.0296338
846 2 0.10599 0.213786 0.0290681
911 2 0.13105 0.213971 0.0280126
916 2 0.132757 0.2124 0.0283585
923 2 0.135415 0.213319 0.0296401
849 2 0.107325 0.215721 0.028782
857 2 0.108864 0.216502 0.0280424
906 2 0.129555 0.215615 0.0277319
918 2 0.133507 0.217006 0.0296923
914 2 0.132319 0.21511 0.0286413
854 2 0.107853 0.218984 0.030215
860 2 0.109987 0.218959 0.0280359
909 2 0.130836 0.218101 0.0287144
861 2 0.111339 0.222494 0.0302402
902 2 0.128067 0.221403 0.0282603
862 2 0.111796 0.225672 0.0299681
865 2 0.112663 0.224018 0.0298915
869 2 0.113718 0.224993 0.0285308
907 2 0.130094 0.22326 0.0296979
866 2 0.112664 0.228292 0.0289265
872 2 0.11484 0.227961 0.0277465
892 2 0.12473 0.226175 0.0284772
905 2 0.129364 0.226103 0.0300881
900 2 0.127213 0.226966 0.0276964
910 2 0.130996 0.227049 0.0281068
917 2 0.132979 0.225984 0.0299037
921 2 0.135203 0.22698 0.0287941
1059 2 0.136593 0.230721 0.0280494
992 2 0.111808 0.231526 0.0287119
997 2 0.114625 0.233623 0.02834
1063 2 0.138093 0.232887 0.0293671
1001 2 0.116192 0.234878 0.0281393
1054 2 0.135392 0.236053 0.0290661
1060 2 0.137209 0.236416 0.0302087
998 2 0.114759 0.237343 0.0293195
1006 2 0.118695 0.237919 0.0281477
999 2 0.114891 0.241001 0.0302956
1004 2 0.117486 0.241477 0.0295596
1008 2 0.118963 0.240768 0.0288706
1016 2 0.122019 0.24003 0.0276207
1018 2 0.122714 0.24424 0.0291927
1026 2 0.125163 0.244608 0.028527
1023 2 0.124273 0.242553 0.0275887
1034 2 0.127592 0.244961 0.0288315
1043 2 0.130543 0.243551 0.0293311
24 2 0.0920528 0.140487 0.0315707
26 2 0.0925055 0.138203 0.0328657
21 2 0.0905173 0.141277 0.0325143
16 2 0.0891034 0.144913 0.0313519
34 2 0.0956574 0.14344 0.0325267
10 2 0.0868747 0.148348 0.0314988
35 2 0.0962252 0.149159 0.0312083
41 2 0.0979522 0.150165 0.0329228
289 2 0.127896 0.150846 0.0328199
85 2 0.131711 0.150285 0.0325677
302 2 0.135001 0.150524 0.0324287
310 2 0.138517 0.151503 0.0321288
315 2 0.140606 0.151114 0.0327516
351 2 0.154314 0.150374 0.0324913
359 2 0.158681 0.151012 0.0328039
163 2 0.0833034 0.153345 0.0326081
201 2 0.0973386 0.153262 0.0304436
203 2 0.0982072 0.152094 0.0318905
209 2 0.10042 0.152272 0.0323884
217 2 0.102632 0.15245 0.0328862
224 2 0.103976 0.153796 0.0319372
231 2 0.106189 0.153974 0.032435
283 2 0.125467 0.151816 0.0327646
300 2 0.133689 0.151955 0.0315331
304 2 0.135668 0.153625 0.0304982
308 2 0.136929 0.152459 0.0311597
312 2 0.138942 0.153781 0.0303814
317 2 0.141141 0.153224 0.0309917
327 2 0.145562 0.153822 0.0306715
322 2 0.143701 0.152918 0.0315925
328 2 0.145767 0.151768 0.0324798
340 2 0.150719 0.151935 0.0316138
349 2 0.153861 0.153186 0.0312493
355 2 0.156944 0.151792 0.0323005
357 2 0.158121 0.153235 0.0320033
364 2 0.160813 0.153215 0.0327227
158 2 0.0821807 0.156216 0.0316995
232 2 0.106506 0.15565 0.0308377
238 2 0.108877 0.156666 0.030537
241 2 0.109745 0.155498 0.0319838
249 2 0.111958 0.155676 0.0324817
272 2 0.119957 0.155408 0.0323125
276 2 0.121754 0.154324 0.0324173
282 2 0.124437 0.155567 0.0312153
287 2 0.126581 0.154477 0.0313225
294 2 0.130904 0.155255 0.0303842
352 2 0.155253 0.154707 0.0309337
361 2 0.15951 0.156291 0.031757
366 2 0.162241 0.156575 0.0324468
152 2 0.081058 0.159087 0.0307908
251 2 0.112275 0.157352 0.0308844
260 2 0.114646 0.158368 0.0305836
267 2 0.117284 0.157135 0.0321016
264 2 0.116858 0.158546 0.0310815
273 2 0.120873 0.157753 0.0309852
356 2 0.157443 0.157538 0.0309022
371 2 0.164454 0.158467 0.0326968
369 2 0.163109 0.15956 0.0320626
141 2 0.0781986 0.163778 0.0322005
372 2 0.165102 0.163192 0.0317311
367 2 0.162765 0.163679 0.0309871
377 2 0.167499 0.163576 0.0322752
365 2 0.161121 0.167489 0.0304384
374 2 0.165947 0.1655 0.031385
381 2 0.170993 0.168016 0.032108
413 2 0.0738413 0.170319 0.0330512
592 2 0.157474 0.170475 0.030728
360 2 0.15886 0.168316 0.0303895
601 2 0.161815 0.170725 0.0312414
370 2 0.164083 0.168615 0.0310081
376 2 0.166858 0.170207 0.0316757
415 2 0.0739361 0.171941 0.0303924
575 2 0.150431 0.173273 0.0303037
588 2 0.156447 0.172968 0.0311782
596 2 0.159414 0.172302 0.0313361
615 2 0.170405 0.17133 0.0322935
408 2 0.0717464 0.175119 0.0314491
582 2 0.15314 0.173592 0.0309757
585 2 0.154795 0.17415 0.0312712
599 2 0.161219 0.173755 0.031878
604 2 0.163887 0.173599 0.0321505
609 2 0.166006 0.174564 0.0326307
580 2 0.152919 0.178558 0.0315479
583 2 0.153663 0.176646 0.0316276
590 2 0.156951 0.177049 0.0321406
598 2 0.160894 0.177206 0.0326794
412 2 0.0736164 0.179705 0.0329336
423 2 0.0768548 0.17939 0.0304359
576 2 0.150843 0.179668 0.0309739
581 2 0.152998 0.180836 0.0317469
589 2 0.156741 0.181003 0.0328533
594 2 0.158278 0.179415 0.0328573
425 2 0.0786382 0.18283 0.0316652
579 2 0.15212 0.183175 0.0315892
587 2 0.156186 0.183482 0.0326853
439 2 0.0831055 0.18701 0.0306545
573 2 0.148538 0.184866 0.0306487
577 2 0.151047 0.185639 0.0313762
586 2 0.154991 0.185961 0.0323814
593 2 0.157612 0.185738 0.033053
569 2 0.146909 0.188709 0.0303982
578 2 0.152019 0.187994 0.0317322
584 2 0.154336 0.188404 0.032337
591 2 0.15712 0.18784 0.032971
626 2 0.0853676 0.191781 0.0325904
759 2 0.148908 0.191411 0.031097
773 2 0.155449 0.191645 0.0329792
769 2 0.154295 0.190204 0.0324223
630 2 0.087178 0.194289 0.0329309
642 2 0.0908209 0.193577 0.0308617
754 2 0.146127 0.192998 0.0304793
762 2 0.149753 0.193611 0.0314759
763 2 0.151519 0.192925 0.0318803
639 2 0.0905653 0.197303 0.0328139
644 2 0.0924631 0.197559 0.0323541
649 2 0.0934544 0.196023 0.0312747
655 2 0.0964953 0.197528 0.0304988
753 2 0.14549 0.198176 0.0306933
757 2 0.147642 0.196066 0.0311036
761 2 0.149677 0.198277 0.032237
648 2 0.0934164 0.199329 0.0329485
652 2 0.0957954 0.202326 0.032189
662 2 0.0993025 0.203419 0.0303097
749 2 0.144154 0.203067 0.0310974
755 2 0.14663 0.201884 0.0318743
758 2 0.148108 0.203369 0.0329417
659 2 0.0986778 0.205675 0.0313373
744 2 0.141367 0.206385 0.0306578
748 2 0.142861 0.20474 0.0309384
745 2 0.142515 0.208211 0.0316719
751 2 0.145012 0.207926 0.0327734
829 2 0.100829 0.21049 0.0317977
833 2 0.102095 0.21194 0.0314875
928 2 0.138644 0.210083 0.0303282
932 2 0.140083 0.211038 0.0312547
942 2 0.143853 0.210362 0.0328601
828 2 0.10082 0.213967 0.0330453
840 2 0.103361 0.213389 0.0311773
844 2 0.104716 0.214872 0.0319839
938 2 0.142707 0.212577 0.0328914
935 2 0.141601 0.214769 0.0329359
835 2 0.102709 0.215331 0.0322772
848 2 0.106533 0.217369 0.0305046
926 2 0.13821 0.216229 0.0317121
924 2 0.135831 0.217788 0.0309921
925 2 0.137536 0.219106 0.0321376
845 2 0.105283 0.220408 0.0323437
853 2 0.107686 0.221568 0.0311942
913 2 0.132068 0.222269 0.0303738
920 2 0.134423 0.221834 0.0313729
847 2 0.106322 0.22423 0.0329537
858 2 0.109172 0.223589 0.0309221
856 2 0.108651 0.225817 0.0319995
915 2 0.132683 0.224653 0.0312801
922 2 0.13533 0.224599 0.0322079
933 2 0.140356 0.224934 0.0324327
929 2 0.138729 0.22558 0.0312839
850 2 0.10742 0.227847 0.0327265
940 2 0.143152 0.227893 0.0326473
982 2 0.104852 0.230721 0.0322065
852 2 0.107661 0.229156 0.0315598
930 2 0.139838 0.22963 0.0303592
978 2 0.102684 0.231567 0.0329832
983 2 0.106244 0.23388 0.0312206
988 2 0.108322 0.233501 0.0304212
1067 2 0.140254 0.232227 0.030911
979 2 0.103475 0.234262 0.0322508
989 2 0.109578 0.235715 0.0306125
1066 2 0.140145 0.234637 0.0310558
984 2 0.106507 0.238092 0.032294
1049 2 0.132609 0.239051 0.0306949
1053 2 0.135042 0.23835 0.0310965
1064 2 0.138782 0.236975 0.0314299
1061 2 0.137907 0.239087 0.0330532
986 2 0.107672 0.240256 0.0325019
990 2 0.109942 0.240574 0.0318311
993 2 0.111966 0.240078 0.0310182
1047 2 0.132108 0.242256 0.0309992
994 2 0.112851 0.243268 0.0324242
996 2 0.114387 0.244223 0.0327868
1003 2 0.117181 0.245111 0.032532
1007 2 0.11877 0.244147 0.0308039
1010 2 0.119824 0.245583 0.0318941
1015 2 0.121513 0.245411 0.030976
1022 2 0.124088 0.246384 0.030907
1033 2 0.127387 0.246463 0.0305391
28 2 0.0929583 0.13592 0.0341606
23 2 0.0913654 0.136864 0.0351333
33 2 0.0954472 0.136941 0.0345452
18 2 0.0896489 0.139267 0.0354555
32 2 0.0950211 0.139215 0.0332411
38 2 0.097485 0.140458 0.0357545
37 2 0.0964518 0.13862 0.0351604
13 2 0.0887105 0.142794 0.0337253
9 2 0.0866021 0.144783 0.0354582
43 2 0.0989409 0.145548 0.0357184
82 2 0.130466 0.14581 0.0355351
40 2 0.0978858 0.14747 0.0337848
76 2 0.125495 0.148061 0.034545
83 2 0.131045 0.147184 0.0344982
88 2 0.13453 0.148463 0.034005
98 2 0.150685 0.148756 0.0344642
102 2 0.15493 0.148332 0.0342299
106 2 0.157833 0.146555 0.0354003
109 2 0.160249 0.147361 0.0343295
112 2 0.161326 0.146188 0.0352236
120 2 0.164732 0.148267 0.0345787
122 2 0.166193 0.14761 0.035454
6 2 0.0843798 0.149541 0.0349727
46 2 0.102157 0.149937 0.0352821
48 2 0.104369 0.150115 0.0357799
220 2 0.103501 0.151282 0.0343331
228 2 0.105713 0.151461 0.0348309
268 2 0.117573 0.151151 0.0348867
67 2 0.118993 0.149819 0.035196
90 2 0.138802 0.149535 0.0338222
94 2 0.146005 0.149701 0.0342959
93 2 0.143923 0.148874 0.0351286
96 2 0.14849 0.150226 0.0334666
101 2 0.153309 0.149068 0.0338057
110 2 0.161124 0.14969 0.0338618
117 2 0.164146 0.150088 0.0342601
368 2 0.163014 0.151376 0.0337037
125 2 0.168587 0.148835 0.035755
164 2 0.0835133 0.152009 0.033913
240 2 0.109111 0.152147 0.0351784
236 2 0.108243 0.153315 0.0337315
252 2 0.112668 0.153671 0.0347272
254 2 0.112803 0.152001 0.0355739
257 2 0.114582 0.153062 0.0346606
265 2 0.116997 0.15374 0.0337849
278 2 0.121931 0.151972 0.0334977
378 2 0.168801 0.152839 0.0352245
156 2 0.0819971 0.154889 0.034103
151 2 0.0804915 0.156949 0.0354283
245 2 0.110614 0.154331 0.0334307
258 2 0.114624 0.155259 0.0336046
373 2 0.16551 0.15475 0.0337943
375 2 0.16681 0.156493 0.0338255
149 2 0.0801513 0.159105 0.0333252
380 2 0.170591 0.159283 0.0341635
383 2 0.172341 0.159428 0.0350691
142 2 0.0784079 0.161672 0.0346002
379 2 0.16991 0.162258 0.033245
384 2 0.172883 0.161763 0.0348906
139 2 0.0764168 0.166368 0.0335514
385 2 0.173362 0.16612 0.0339392
137 2 0.075474 0.168297 0.0330861
386 2 0.173602 0.168298 0.0334639
410 2 0.0719744 0.172509 0.0331966
616 2 0.17216 0.173085 0.0345276
618 2 0.173648 0.170852 0.0341537
404 2 0.0704384 0.175107 0.0335431
401 2 0.0690108 0.177658 0.0345072
607 2 0.16515 0.177905 0.0333569
614 2 0.169678 0.177244 0.0352832
612 2 0.168308 0.17857 0.0348391
407 2 0.0713128 0.181398 0.034759
602 2 0.162277 0.180737 0.0337224
606 2 0.164584 0.180771 0.0340193
419 2 0.0755548 0.18317 0.0351195
595 2 0.159404 0.181942 0.0334235
603 2 0.162704 0.18275 0.0340727
426 2 0.0789736 0.186882 0.0350353
432 2 0.0810424 0.187289 0.0331585
597 2 0.160012 0.18525 0.0335629
437 2 0.0826636 0.189507 0.033438
600 2 0.161658 0.189059 0.0350318
621 2 0.0837224 0.191323 0.0339596
783 2 0.159863 0.190726 0.034692
628 2 0.0854347 0.194817 0.0353165
768 2 0.1542 0.19417 0.0331192
781 2 0.158387 0.194013 0.0349405
635 2 0.0889048 0.197781 0.0342703
771 2 0.154514 0.19579 0.0337058
778 2 0.156625 0.195745 0.0346335
643 2 0.0915186 0.199074 0.0334083
766 2 0.15297 0.199002 0.0339035
772 2 0.155086 0.19896 0.0348342
638 2 0.0896948 0.202843 0.0358023
641 2 0.0908115 0.201322 0.0354591
651 2 0.094011 0.202531 0.0335041
765 2 0.152239 0.201405 0.0342402
770 2 0.154378 0.201353 0.0351784
640 2 0.0907053 0.205427 0.0350865
647 2 0.0933971 0.20567 0.0345458
653 2 0.0959247 0.20476 0.034283
658 2 0.0972492 0.206284 0.0339343
764 2 0.151721 0.206173 0.0353236
637 2 0.0892896 0.207549 0.0355591
646 2 0.093286 0.208534 0.0348085
661 2 0.0992292 0.208592 0.033328
756 2 0.147519 0.207434 0.033799
760 2 0.149275 0.209241 0.0350791
636 2 0.0890486 0.209866 0.0358031
817 2 0.0952852 0.211859 0.0346698
825 2 0.0982673 0.210318 0.033453
950 2 0.147506 0.210929 0.0347263
811 2 0.0920874 0.212931 0.035426
819 2 0.0956608 0.214762 0.0348342
823 2 0.0975284 0.213035 0.0343006
952 2 0.148512 0.212918 0.0357208
824 2 0.0979587 0.216319 0.0344855
830 2 0.100905 0.21636 0.0338144
944 2 0.145282 0.215305 0.0348126
818 2 0.0953825 0.218174 0.0351776
832 2 0.100995 0.218727 0.0340541
838 2 0.102951 0.21944 0.0335204
931 2 0.139947 0.220101 0.0335336
936 2 0.14205 0.21929 0.0343169
820 2 0.0959994 0.220525 0.0352455
826 2 0.0985601 0.221014 0.0347527
831 2 0.100935 0.222353 0.0343763
842 2 0.104362 0.222928 0.0337101
837 2 0.10294 0.221768 0.0339093
941 2 0.143166 0.22104 0.0352963
934 2 0.140542 0.223056 0.0351373
821 2 0.0972483 0.224525 0.0353363
836 2 0.10272 0.224359 0.034191
927 2 0.138399 0.224317 0.0338927
937 2 0.142194 0.224355 0.0335158
948 2 0.146998 0.225561 0.0352879
827 2 0.0995691 0.228431 0.0352245
834 2 0.102373 0.226658 0.0344746
947 2 0.145428 0.228495 0.0343605
946 2 0.145371 0.226207 0.034139
822 2 0.0973964 0.229419 0.035789
976 2 0.101133 0.230148 0.0350998
841 2 0.103409 0.229079 0.0344739
971 2 0.0981097 0.231952 0.0357032
1070 2 0.143463 0.23406 0.0334442
1073 2 0.144738 0.23194 0.0341698
1075 2 0.146433 0.233567 0.0355469
973 2 0.098473 0.236385 0.0345075
974 2 0.0989987 0.238717 0.0349751
975 2 0.100574 0.237426 0.0340926
980 2 0.104224 0.239367 0.0334086
977 2 0.102185 0.242069 0.0357591
1048 2 0.132572 0.241942 0.0331055
1056 2 0.13546 0.240639 0.0334553
981 2 0.104625 0.2425 0.0351646
987 2 0.107953 0.242532 0.0337554
991 2 0.110402 0.2429 0.0330898
1012 2 0.120271 0.245804 0.0351238
1021 2 0.123795 0.246097 0.0349503
1035 2 0.128447 0.246552 0.0333243
27 2 0.092789 0.131882 0.0374415
53 2 0.110119 0.131214 0.0381921
1 2 0.10845 0.129903 0.0385042
58 2 0.113551 0.130691 0.0381754
25 2 0.0920772 0.134373 0.0362874
36 2 0.0964163 0.134077 0.0367047
56 2 0.112321 0.134007 0.0378895
68 2 0.119196 0.133559 0.0384908
19 2 0.0900022 0.136321 0.0378799
60 2 0.115039 0.135729 0.0373386
65 2 0.118133 0.135347 0.0373506
73 2 0.12269 0.135673 0.0385109
75 2 0.124315 0.137682 0.0380418
14 2 0.0887803 0.139382 0.0369807
42 2 0.0988668 0.138092 0.0382337
54 2 0.11168 0.138052 0.0384778
57 2 0.113449 0.139745 0.038178
64 2 0.117131 0.138706 0.0370848
74 2 0.124104 0.140089 0.036858