ITEM: TIMESTEP
1000
ITEM: NUMBER OF ATOMS
1543
ITEM: BOX BOUNDS pp pp pp
0.0000000000000000e+00 1.0000000000000000e+03
0.0000000000000000e+00 1.0000000000000000e+03
0.0000000000000000e+00 1.0000000000000000e+03
ITEM: ATOMS id type xs ys zs
28584 1 0.0794056 0.15387 0.136571
28322 1 0.079553 0.151837 0.137558
28324 1 0.0811609 0.15263 0.136957
28327 1 0.0827529 0.152472 0.137622
28583 1 0.0792701 0.156461 0.13651
28577 1 0.0776216 0.154723 0.137135
28592 1 0.0832365 0.154647 0.137173
28578 1 0.0779412 0.157344 0.137377
28585 1 0.0794293 0.157938 0.136897
28590 1 0.0814904 0.158907 0.137086
28591 1 0.0830528 0.157708 0.13696
28315 1 0.0757716 0.150681 0.140261
28318 1 0.0774363 0.149928 0.13999
28323 1 0.0808758 0.150275 0.138648
28329 1 0.0831172 0.150823 0.138645
28572 1 0.0760656 0.154074 0.138913
28314 1 0.0754185 0.152741 0.139843
28317 1 0.0772581 0.15224 0.138577
28331 1 0.0845692 0.15223 0.138971
28602 1 0.08557 0.153919 0.139654
28575 1 0.0768656 0.155849 0.137952
28571 1 0.0759833 0.156374 0.139277
28599 1 0.0852763 0.155567 0.138869
28598 1 0.0852175 0.157697 0.138652
28582 1 0.0790817 0.160045 0.138805
28579 1 0.0783739 0.160258 0.140236
28587 1 0.0807136 0.161452 0.140368
28588 1 0.081321 0.160565 0.138543
28593 1 0.0837273 0.159918 0.138531
28653 1 0.10898 0.160782 0.140199
28655 1 0.110301 0.162392 0.139368
28661 1 0.112503 0.162101 0.139203
28665 1 0.11448 0.162129 0.139626
28648 1 0.106432 0.163708 0.139918
28654 1 0.10911 0.163905 0.139211
28659 1 0.112003 0.164219 0.139099
28667 1 0.114721 0.165039 0.139918
28649 1 0.106492 0.165831 0.139714
28837 1 0.108987 0.168044 0.140238
28835 1 0.107479 0.168034 0.140239
28660 1 0.112429 0.166659 0.140117
28299 1 0.0692124 0.145454 0.141746
28300 1 0.0697295 0.144101 0.142612
28304 1 0.0712233 0.143684 0.142883
28309 1 0.0733907 0.14568 0.141678
28306 1 0.0717329 0.145089 0.141668
28295 1 0.0677151 0.146124 0.142027
28293 1 0.0674139 0.148221 0.141982
28303 1 0.0712117 0.147738 0.140697
28296 1 0.0689149 0.147651 0.141124
28310 1 0.0734947 0.147746 0.141158
28313 1 0.0749074 0.146216 0.142076
28316 1 0.076093 0.14864 0.1419
28320 1 0.07807 0.148394 0.141757
28326 1 0.0817896 0.147898 0.142609
28328 1 0.0830292 0.148749 0.140744
28297 1 0.069048 0.149828 0.141492
28312 1 0.0736906 0.149761 0.141392
28332 1 0.0854113 0.150045 0.142239
28302 1 0.0711152 0.151725 0.142811
28307 1 0.0726195 0.151622 0.142608
28334 1 0.0865637 0.151532 0.142482
28632 1 0.100558 0.153731 0.142858
28339 1 0.103042 0.153139 0.143207
28568 1 0.0743196 0.154621 0.141303
28569 1 0.0745389 0.155908 0.142851
28609 1 0.0875385 0.156042 0.143228
28605 1 0.0866626 0.155799 0.141267
28631 1 0.100317 0.155764 0.142141
28640 1 0.102616 0.154958 0.141957
28637 1 0.102077 0.156394 0.141693
28646 1 0.104932 0.155955 0.142865
28652 1 0.107452 0.156927 0.143063
28570 1 0.0759397 0.157887 0.142544
28573 1 0.0760683 0.157862 0.140857
28603 1 0.0860766 0.158518 0.140791
28604 1 0.0860942 0.159242 0.142971
28629 1 0.0998729 0.158728 0.143141
28638 1 0.102119 0.15834 0.142201
28643 1 0.103918 0.158596 0.142556
28647 1 0.105942 0.157215 0.14309
28657 1 0.110669 0.159177 0.140686
28656 1 0.110517 0.157451 0.142314
28662 1 0.112618 0.159033 0.140656
28664 1 0.113072 0.157956 0.142058
28581 1 0.0788989 0.160659 0.143047
28576 1 0.0775636 0.15984 0.142134
28586 1 0.0806961 0.161456 0.142908
28595 1 0.0838979 0.161075 0.14266
28594 1 0.0838856 0.161001 0.140843
28597 1 0.0851876 0.160122 0.140938
28636 1 0.101997 0.160296 0.143047
28650 1 0.106966 0.160519 0.141167
28645 1 0.104818 0.161976 0.141824
28672 1 0.117031 0.162119 0.142014
28668 1 0.116117 0.162045 0.140555
28669 1 0.116206 0.160547 0.141668
28642 1 0.103579 0.164269 0.142148
28641 1 0.103471 0.166415 0.142318
28842 1 0.11262 0.167694 0.141214
28844 1 0.114023 0.167657 0.141945
28670 1 0.11649 0.165706 0.141725
28833 1 0.105544 0.169744 0.142305
28836 1 0.10759 0.17012 0.142139
28840 1 0.111647 0.168739 0.142488
28305 1 0.0715634 0.142649 0.144248
28301 1 0.0700101 0.14239 0.144312
28311 1 0.0735004 0.14303 0.145228
28287 1 0.0656459 0.144458 0.145285
28292 1 0.0671365 0.143658 0.14421
28288 1 0.0658106 0.147915 0.144666
28290 1 0.0665472 0.148238 0.143285
28289 1 0.0663196 0.14626 0.143677
28321 1 0.079115 0.147627 0.143605
28319 1 0.0777351 0.146966 0.144435
28325 1 0.0814811 0.147776 0.144478
28330 1 0.083245 0.148377 0.144706
28291 1 0.0666661 0.150523 0.145681
28333 1 0.0858351 0.150208 0.144788
28335 1 0.0877303 0.1515 0.145288
28294 1 0.0675482 0.151694 0.145266
28298 1 0.0691297 0.151968 0.143916
28308 1 0.072826 0.153036 0.144015
28612 1 0.0883043 0.154022 0.144775
33550 1 0.0983021 0.153378 0.145971
28627 1 0.0986176 0.154131 0.143794
28336 1 0.099375 0.152403 0.145301
28337 1 0.100998 0.152203 0.143929
28338 1 0.102561 0.151658 0.145342
28644 1 0.104793 0.153886 0.143576
28615 1 0.0900223 0.155725 0.145243
28613 1 0.0884321 0.155569 0.144881
33537 1 0.0922438 0.155057 0.145829
28621 1 0.0927264 0.156818 0.144631
28625 1 0.0982638 0.156332 0.143642
33547 1 0.0972972 0.155372 0.145814
28651 1 0.107389 0.155123 0.144891
28658 1 0.11159 0.156511 0.144221
28574 1 0.0767611 0.157282 0.145434
28580 1 0.0784322 0.159365 0.144939
28606 1 0.087171 0.157797 0.143364
28610 1 0.0877733 0.159428 0.144245
28601 1 0.0854923 0.159562 0.144888
28614 1 0.089321 0.159426 0.144201
28618 1 0.0912201 0.157281 0.144568
28623 1 0.0951037 0.157533 0.144736
33545 1 0.0971276 0.157195 0.145868
28626 1 0.0984026 0.159271 0.144634
28663 1 0.112917 0.157176 0.143775
28666 1 0.114612 0.15817 0.144564
33659 1 0.133583 0.157157 0.145944
33665 1 0.135318 0.15716 0.145962
28676 1 0.135621 0.15939 0.145485
28589 1 0.0813873 0.160488 0.145325
28607 1 0.0873784 0.16102 0.144142
28619 1 0.0915682 0.159983 0.144325
28620 1 0.0915967 0.162514 0.14483
28624 1 0.0957668 0.161076 0.145468
28628 1 0.0986664 0.161316 0.145406
28630 1 0.100256 0.161377 0.144089
28639 1 0.102372 0.162458 0.143277
28671 1 0.116942 0.160353 0.143921
28675 1 0.132797 0.159895 0.145711
33676 1 0.137643 0.160844 0.145838
28600 1 0.0852875 0.164374 0.144581
28596 1 0.0850303 0.162658 0.144966
28608 1 0.0874411 0.163928 0.143568
28616 1 0.0907504 0.163917 0.143849
28622 1 0.0934923 0.163664 0.145593
28633 1 0.100991 0.164291 0.14505
28674 1 0.117754 0.162589 0.144416
28673 1 0.117399 0.165118 0.143736
28611 1 0.0879878 0.165661 0.143267
28617 1 0.0907928 0.165648 0.143517
28828 1 0.0892229 0.167446 0.143404
33539 1 0.0942874 0.166498 0.145963
28634 1 0.101683 0.16643 0.145399
28635 1 0.101939 0.165333 0.144096
28845 1 0.115193 0.167761 0.143709
28827 1 0.087587 0.16991 0.145568
28826 1 0.0854956 0.168086 0.14536
28829 1 0.0897791 0.169937 0.145209
28830 1 0.0906785 0.168074 0.143984
28831 1 0.103305 0.168131 0.143811
28832 1 0.103706 0.169423 0.145525
28834 1 0.107023 0.170717 0.143518
28838 1 0.109379 0.170755 0.145491
28839 1 0.10996 0.170074 0.143408
28841 1 0.111817 0.169181 0.143949
33974 1 0.11166 0.170148 0.145811
28843 1 0.113049 0.169059 0.145375
33979 1 0.114519 0.168459 0.14597
32763 1 0.0682254 0.131311 0.148156
32762 1 0.0681832 0.132884 0.147834
32759 1 0.0667436 0.136108 0.146587
32766 1 0.0704209 0.136798 0.148739
33164 1 0.0682965 0.140331 0.147707
32760 1 0.0679577 0.138336 0.147081
33166 1 0.0704306 0.140074 0.148362
33158 1 0.0655053 0.142691 0.146474
33154 1 0.0640359 0.14285 0.147897
33162 1 0.0663094 0.140862 0.147476
33165 1 0.0698654 0.1411 0.146198
33169 1 0.0730444 0.142413 0.147114
33168 1 0.0725571 0.141573 0.148403
33173 1 0.0742732 0.143334 0.147425
33176 1 0.0751975 0.143979 0.146063
33159 1 0.065534 0.148568 0.147187
33156 1 0.0649389 0.146845 0.146641
33181 1 0.0783094 0.147002 0.147576
33191 1 0.0818581 0.147917 0.148005
33187 1 0.0803608 0.147503 0.146319
33202 1 0.0859965 0.147161 0.148386
33157 1 0.0649687 0.148886 0.148638
33161 1 0.0661545 0.150008 0.147246
33198 1 0.0839789 0.149059 0.146079
33201 1 0.0858665 0.149289 0.146337
33212 1 0.0891024 0.151256 0.146469
33163 1 0.0671546 0.152029 0.147259
33487 1 0.0699321 0.153716 0.146027
33216 1 0.090813 0.152911 0.147368
33221 1 0.0929955 0.153047 0.148543
33538 1 0.0926727 0.153921 0.147034
33540 1 0.0946631 0.153639 0.147881
33232 1 0.0989362 0.152883 0.147859
33549 1 0.0978723 0.154199 0.148131
33235 1 0.100553 0.15191 0.147856
33237 1 0.102883 0.151841 0.148027
33238 1 0.104436 0.152128 0.146008
33576 1 0.106798 0.154046 0.147753
33499 1 0.0748169 0.155373 0.146109
33498 1 0.0746854 0.156321 0.147792
33542 1 0.0956313 0.155291 0.146137
33583 1 0.109276 0.155148 0.147171
33588 1 0.112523 0.156818 0.14628
33589 1 0.113195 0.156802 0.148066
33596 1 0.115859 0.156819 0.14831
33646 1 0.130498 0.155809 0.148238
33651 1 0.131859 0.155082 0.14784
33658 1 0.133255 0.155493 0.146996
33503 1 0.0761954 0.157078 0.148523
33509 1 0.0783732 0.158729 0.148488
33512 1 0.0790681 0.158733 0.146648
33514 1 0.080521 0.159509 0.147455
33593 1 0.114548 0.158175 0.146266
33606 1 0.117983 0.159077 0.147874
33643 1 0.12945 0.157642 0.148602
33644 1 0.130066 0.159362 0.147532
33674 1 0.137368 0.158868 0.146019
33681 1 0.139073 0.159145 0.14668
33525 1 0.0838552 0.160417 0.147281
33518 1 0.0831452 0.160229 0.14866
33543 1 0.0958964 0.162302 0.146512
33548 1 0.0976295 0.161327 0.146535
33600 1 0.116858 0.160225 0.146119
33608 1 0.118329 0.160975 0.147742
33649 1 0.131425 0.159855 0.146393
33648 1 0.131033 0.162281 0.148338
33657 1 0.133102 0.161595 0.146245
33683 1 0.139445 0.160688 0.14662
33699 1 0.141376 0.161304 0.148728
33521 1 0.0833855 0.164484 0.147415
33523 1 0.0835437 0.162574 0.147496
33541 1 0.0951637 0.163908 0.146638
33556 1 0.0990667 0.163249 0.146927
33546 1 0.0972782 0.163916 0.148336
33561 1 0.10022 0.164831 0.146702
33663 1 0.134373 0.164446 0.148237
33655 1 0.132833 0.163542 0.148137
33671 1 0.136727 0.164431 0.147382
33673 1 0.137292 0.163052 0.1464
33685 1 0.139591 0.163466 0.147658
33526 1 0.0839247 0.166635 0.146826
33940 1 0.0947897 0.167931 0.147209
33598 1 0.116653 0.166504 0.147994
33599 1 0.116708 0.166612 0.146214
33915 1 0.0852816 0.168774 0.147082
33920 1 0.0873701 0.170352 0.147666
33923 1 0.0896668 0.170725 0.147586
33931 1 0.091846 0.170052 0.146978
33954 1 0.10439 0.169726 0.147813
33981 1 0.114699 0.168468 0.147653
33959 1 0.106818 0.170979 0.146407
33966 1 0.108838 0.17115 0.147271
32765 1 0.0699772 0.129091 0.150112
32764 1 0.0694449 0.127878 0.151397
32761 1 0.0680301 0.129755 0.14923
32767 1 0.0706629 0.130551 0.149106
32773 1 0.0730294 0.130956 0.151362
32769 1 0.071729 0.129596 0.150499
32772 1 0.0723408 0.133006 0.149731
32768 1 0.0713976 0.136331 0.150107
33167 1 0.0711707 0.139332 0.149734
33172 1 0.0737464 0.142696 0.149236
33170 1 0.0732258 0.14161 0.150153
33145 1 0.0618408 0.144463 0.149825
33175 1 0.075112 0.144096 0.149041
33177 1 0.0759703 0.144563 0.151457
33199 1 0.0847615 0.14594 0.150072
33149 1 0.0625335 0.147828 0.150143
33142 1 0.0614897 0.146656 0.151005
33152 1 0.0633495 0.146521 0.149074
33179 1 0.0769811 0.146192 0.149681
33184 1 0.078678 0.146881 0.150757
33189 1 0.0807748 0.147409 0.149002
33197 1 0.0838511 0.147146 0.148784
33204 1 0.0866576 0.146364 0.149882
33207 1 0.088043 0.147336 0.148915
33211 1 0.088778 0.14717 0.15077
33213 1 0.0894871 0.148561 0.149088
33146 1 0.0618555 0.14926 0.150726
33151 1 0.0627583 0.150579 0.150367
33153 1 0.0638782 0.149429 0.149673
33215 1 0.0902151 0.149159 0.150643
33218 1 0.0910468 0.15043 0.151151
33155 1 0.0645511 0.151765 0.150457
33160 1 0.0661476 0.151926 0.150063
33222 1 0.0936411 0.151973 0.151158
33234 1 0.100421 0.152804 0.149444
33565 1 0.101141 0.154034 0.15132
33568 1 0.102899 0.153425 0.150589
33236 1 0.102436 0.152443 0.149543
33573 1 0.105012 0.153761 0.149758
33627 1 0.123947 0.153347 0.151333
33621 1 0.122123 0.15388 0.151297
33632 1 0.126437 0.153577 0.151512
33642 1 0.129439 0.15405 0.150855
33258 1 0.130179 0.152784 0.151465
33653 1 0.132313 0.153461 0.149508
33263 1 0.133387 0.15234 0.150879
33669 1 0.136312 0.153639 0.150549
33666 1 0.13553 0.154173 0.149311
33677 1 0.137842 0.154018 0.151197
33483 1 0.0685647 0.155309 0.150386
33484 1 0.0691297 0.155273 0.1488
33486 1 0.0698899 0.156674 0.151195
33488 1 0.070778 0.156518 0.149175
33493 1 0.0727077 0.157004 0.149089
33552 1 0.0983415 0.154416 0.149683
33578 1 0.107802 0.154511 0.149117
33585 1 0.110364 0.155496 0.149116
33591 1 0.11353 0.155882 0.149452
33595 1 0.115778 0.155172 0.15013
33602 1 0.117281 0.155874 0.149267
33616 1 0.120679 0.155326 0.150894
33628 1 0.124158 0.156556 0.150559
33641 1 0.12937 0.155444 0.150089
33636 1 0.127472 0.156181 0.151143
33675 1 0.137633 0.154642 0.149847
33688 1 0.140544 0.15611 0.150567
33464 1 0.0628992 0.159214 0.151466
33470 1 0.064844 0.158079 0.151473
33501 1 0.0756311 0.157925 0.149905
33505 1 0.0771476 0.158837 0.150731
33510 1 0.0786083 0.159471 0.150721
33609 1 0.11876 0.157205 0.148925
33613 1 0.119632 0.158941 0.148877
33618 1 0.120988 0.157515 0.150111
33622 1 0.122264 0.159091 0.150709
33626 1 0.123608 0.158377 0.150862
33633 1 0.12677 0.159439 0.150879
33637 1 0.128473 0.157792 0.150342
33695 1 0.141184 0.158733 0.148928
33703 1 0.141677 0.158798 0.150808
33516 1 0.0810462 0.160106 0.150726
33519 1 0.0832518 0.160232 0.151472
33619 1 0.121064 0.161117 0.150148
33623 1 0.122606 0.16111 0.150808
33630 1 0.125198 0.162452 0.150721
33639 1 0.12915 0.161601 0.150777
33635 1 0.127104 0.162202 0.150798
33706 1 0.141953 0.1607 0.150926
33522 1 0.0834233 0.163827 0.149783
33555 1 0.0990317 0.164764 0.149385
33605 1 0.117885 0.164877 0.149063
33611 1 0.118972 0.164819 0.150718
33617 1 0.120938 0.163262 0.150828
33610 1 0.118898 0.162977 0.149013
33625 1 0.123364 0.163028 0.150831
33624 1 0.123158 0.165039 0.151222
33629 1 0.124972 0.164271 0.150806
33634 1 0.127053 0.16463 0.150163
33640 1 0.129188 0.163534 0.150878
33645 1 0.130285 0.162571 0.150059
33664 1 0.134422 0.165263 0.150468
33679 1 0.138811 0.165041 0.148806
33692 1 0.140977 0.163014 0.148808
33689 1 0.140728 0.164661 0.151005
33942 1 0.0959946 0.167533 0.148898
33941 1 0.0957949 0.167935 0.151329
33947 1 0.102194 0.167959 0.148997
33601 1 0.117219 0.165942 0.150318
33631 1 0.125934 0.166017 0.150181
33638 1 0.128956 0.16738 0.149801
33672 1 0.136915 0.165972 0.150659
33670 1 0.13655 0.165422 0.148845
33680 1 0.139027 0.165542 0.150406
33914 1 0.0851815 0.168397 0.151028
33913 1 0.0847616 0.168469 0.149022
33921 1 0.0873847 0.17009 0.149503
33924 1 0.0896852 0.169921 0.150835
33937 1 0.0933698 0.169404 0.149062
33929 1 0.0909533 0.170108 0.149601
33936 1 0.0933573 0.169288 0.151124
33952 1 0.103908 0.169827 0.150957
33961 1 0.106946 0.170731 0.148941
33976 1 0.112655 0.169831 0.150685
33982 1 0.114815 0.16827 0.149556
34010 1 0.12695 0.168744 0.150267
34017 1 0.130781 0.170175 0.151503
34018 1 0.131065 0.168049 0.1505
33965 1 0.108496 0.171226 0.148944
33963 1 0.107603 0.170957 0.151311
33971 1 0.111135 0.170958 0.14913
32774 1 0.073234 0.126131 0.153585
32770 1 0.0720404 0.127446 0.152183
32783 1 0.0750242 0.12804 0.154056
32781 1 0.0749181 0.129861 0.153747
32778 1 0.0739774 0.132419 0.153302
32771 1 0.0722643 0.138642 0.151786
33171 1 0.0735898 0.140394 0.152683
32777 1 0.0739097 0.138817 0.154269
33174 1 0.07449 0.142224 0.152875
33180 1 0.0779118 0.144652 0.152522
33192 1 0.0820187 0.145549 0.153444
33188 1 0.0806075 0.143806 0.154114
33200 1 0.085809 0.145321 0.152728
33206 1 0.0872735 0.145864 0.152304
33123 1 0.0592659 0.147442 0.153486
33210 1 0.0885699 0.146862 0.152816
33120 1 0.0588551 0.151272 0.153521
33121 1 0.0590688 0.149786 0.153458
33127 1 0.0601483 0.151301 0.152494
33132 1 0.0606298 0.14979 0.151744
33214 1 0.0900297 0.149377 0.15347
33220 1 0.0923205 0.150562 0.152619
33260 1 0.131322 0.1513 0.153181
33264 1 0.133549 0.151087 0.153437
33111 1 0.0577437 0.152725 0.153228
33459 1 0.0612027 0.153505 0.151952
33465 1 0.0629354 0.153519 0.151602
33477 1 0.0670109 0.154168 0.151733
33224 1 0.0951898 0.152652 0.151854
33544 1 0.0968581 0.153856 0.153921
33603 1 0.117712 0.154196 0.151824
33614 1 0.119917 0.153609 0.152048
33240 1 0.118582 0.153141 0.153619
33243 1 0.12157 0.152567 0.152721
33247 1 0.125182 0.152356 0.151976
33253 1 0.128043 0.153071 0.152251
33254 1 0.128775 0.151932 0.153358
33261 1 0.131864 0.151935 0.151759
33265 1 0.134077 0.151622 0.152096
33268 1 0.137138 0.152341 0.152808
33271 1 0.138621 0.152145 0.154112
33447 1 0.0557573 0.155895 0.154195
33450 1 0.0574772 0.154851 0.153086
33451 1 0.0576286 0.15654 0.153295
33456 1 0.0596973 0.154529 0.152424
33457 1 0.0597001 0.156082 0.152456
33471 1 0.0649477 0.156093 0.151596
33481 1 0.0684152 0.155857 0.151985
33566 1 0.101522 0.156186 0.153783
33559 1 0.0994327 0.156767 0.153532
33567 1 0.102569 0.155053 0.152583
33572 1 0.104327 0.154612 0.151589
33574 1 0.105434 0.15499 0.154075
33577 1 0.107059 0.154728 0.153114
33581 1 0.109138 0.154688 0.152577
33587 1 0.110828 0.154909 0.152253
33590 1 0.11343 0.154869 0.152657
33687 1 0.140031 0.154365 0.152904
33686 1 0.139736 0.154998 0.151535
33693 1 0.141028 0.155964 0.152423
33446 1 0.054697 0.158662 0.153605
33441 1 0.0528718 0.159227 0.154116
33449 1 0.0568156 0.158701 0.153335
33460 1 0.0613108 0.157616 0.151575
33479 1 0.067174 0.159499 0.153193
33475 1 0.0662495 0.158076 0.15222
33489 1 0.0712165 0.157679 0.153924
33490 1 0.072252 0.157729 0.151812
33497 1 0.074428 0.158642 0.152216
33502 1 0.0757499 0.159287 0.153364
33702 1 0.141653 0.157621 0.153783
33440 1 0.0527092 0.162078 0.153788
33454 1 0.0586317 0.162161 0.152757
33452 1 0.0581653 0.160483 0.153043
33461 1 0.0616172 0.162104 0.152848
33472 1 0.0655044 0.161769 0.153158
33504 1 0.0769984 0.16037 0.153931
33511 1 0.0789548 0.160934 0.153522
33508 1 0.0779349 0.159926 0.152349
33524 1 0.0838228 0.161437 0.153639
33709 1 0.142078 0.160621 0.153767
33442 1 0.0538572 0.164336 0.153486
33445 1 0.0545951 0.162666 0.153087
33448 1 0.056062 0.164719 0.152751
33455 1 0.0588305 0.16471 0.152681
33458 1 0.0610822 0.164286 0.15341
33466 1 0.0631159 0.163655 0.153821
33469 1 0.0647655 0.163044 0.153659
33527 1 0.0841524 0.163 0.152391
33531 1 0.0843258 0.164496 0.152718
33529 1 0.0842615 0.163149 0.153898
33650 1 0.131573 0.164308 0.151689
33647 1 0.130776 0.162881 0.151946
33662 1 0.134271 0.165281 0.152271
33654 1 0.132675 0.163964 0.154137
33656 1 0.132944 0.164983 0.153068
33701 1 0.141482 0.163598 0.151963
33444 1 0.0542541 0.166117 0.153853
33453 1 0.0582331 0.166551 0.153162
33911 1 0.0588623 0.167647 0.15409
33530 1 0.0842731 0.166112 0.15198
33917 1 0.0863748 0.167967 0.154023
33939 1 0.0944328 0.167583 0.153892
33553 1 0.0986804 0.165599 0.152479
33560 1 0.100148 0.166485 0.152538
33604 1 0.11788 0.165815 0.152107
33615 1 0.12052 0.167048 0.153327
34002 1 0.123423 0.167672 0.151713
33620 1 0.121657 0.166397 0.152224
33660 1 0.133778 0.167313 0.153965
34023 1 0.132638 0.168017 0.15165
33668 1 0.136272 0.166269 0.153695
33682 1 0.139441 0.16603 0.154014
33684 1 0.13953 0.165719 0.152491
33916 1 0.0857573 0.168159 0.152656
33919 1 0.0872246 0.168674 0.152795
33928 1 0.0909019 0.168671 0.153325
33930 1 0.0914266 0.169312 0.151791
33934 1 0.0926944 0.168447 0.153143
33945 1 0.101671 0.168085 0.151843
33949 1 0.102967 0.169454 0.152434
33956 1 0.105253 0.170513 0.152526
33967 1 0.10894 0.170695 0.152599
33964 1 0.107943 0.170438 0.154192
33969 1 0.109522 0.170342 0.153995
33970 1 0.111069 0.170224 0.152594
33980 1 0.114566 0.168477 0.152606
33977 1 0.113418 0.169277 0.153826
34000 1 0.121533 0.169548 0.154062
34005 1 0.124879 0.169767 0.151656
34024 1 0.132983 0.169951 0.153663
34008 1 0.125843 0.171199 0.152175
34006 1 0.12497 0.17221 0.153885
34015 1 0.128543 0.171283 0.151879
34011 1 0.127172 0.172408 0.153375
34021 1 0.131507 0.171015 0.152751
34020 1 0.131458 0.171886 0.154172
32210 1 0.0709686 0.12469 0.155356
32784 1 0.0753296 0.126335 0.155828
32786 1 0.0756513 0.129963 0.155063
32776 1 0.0737282 0.134888 0.154885
32775 1 0.0733227 0.137081 0.154731
32790 1 0.0759706 0.137219 0.15655
32780 1 0.0743988 0.13626 0.15583
32788 1 0.0757012 0.138821 0.155504
33178 1 0.076901 0.139998 0.155647
33183 1 0.0786701 0.141701 0.154868
33190 1 0.0809204 0.14215 0.156148
33193 1 0.0823253 0.144849 0.155087
33195 1 0.0830533 0.145825 0.156232
33203 1 0.0866058 0.147017 0.155307
33208 1 0.0884252 0.147365 0.154507
33209 1 0.0885115 0.149042 0.156482
33223 1 0.0942141 0.150644 0.154515
33229 1 0.0979267 0.150823 0.156699
33246 1 0.123417 0.150697 0.154487
33249 1 0.125714 0.149354 0.156517
33252 1 0.127716 0.149655 0.15644
33250 1 0.127157 0.150863 0.154382
33257 1 0.129946 0.150437 0.155754
33262 1 0.132618 0.150778 0.156207
33267 1 0.13548 0.151247 0.155917
33225 1 0.0956036 0.151961 0.154536
33230 1 0.0985522 0.152215 0.156533
33227 1 0.0975497 0.152914 0.15526
33239 1 0.11798 0.153002 0.155672
33241 1 0.119637 0.152359 0.155612
33691 1 0.140947 0.154196 0.155221
33443 1 0.0541276 0.156099 0.1549
33551 1 0.09832 0.155404 0.154358
33564 1 0.101027 0.15638 0.156716
33569 1 0.103964 0.155472 0.155694
33580 1 0.108693 0.155434 0.155225
33586 1 0.110718 0.156177 0.156702
33592 1 0.114216 0.155423 0.155447
33700 1 0.141461 0.15593 0.155353
33482 1 0.0684566 0.159107 0.154546
33491 1 0.0723837 0.157737 0.156249
33494 1 0.0728771 0.158125 0.154641
33500 1 0.0749857 0.159629 0.154892
33704 1 0.141778 0.15777 0.155374
33708 1 0.142006 0.158856 0.157009
33425 1 0.0503621 0.161226 0.155739
33506 1 0.0772449 0.160959 0.155408
33517 1 0.081105 0.161752 0.154995
33513 1 0.0801174 0.161923 0.156284
33528 1 0.0842338 0.162265 0.155743
33710 1 0.142315 0.161009 0.157019
33414 1 0.0495994 0.163048 0.156664
33435 1 0.0513108 0.16413 0.155246
33474 1 0.065721 0.164043 0.157021
33468 1 0.0644937 0.164229 0.15507
33476 1 0.0664829 0.162657 0.155212
33532 1 0.0847922 0.164367 0.156361
33652 1 0.131971 0.162895 0.155616
33698 1 0.141306 0.164835 0.155086
33707 1 0.142 0.163329 0.154998
33439 1 0.0518599 0.167133 0.156516
33462 1 0.0616367 0.166828 0.155619
33534 1 0.0852819 0.166685 0.154536
33918 1 0.0870003 0.16756 0.156996
33933 1 0.0924518 0.168013 0.154595
33943 1 0.0966436 0.1675 0.156831
33554 1 0.0986836 0.16623 0.15645
33563 1 0.100844 0.167191 0.155963
33558 1 0.0992191 0.165852 0.155092
33607 1 0.118067 0.166668 0.154443
33667 1 0.136004 0.166915 0.15635
33678 1 0.138707 0.166886 0.155399
33690 1 0.140775 0.166438 0.156602
33905 1 0.0529599 0.168396 0.156914
33908 1 0.0569149 0.169225 0.156752
33906 1 0.0561932 0.168339 0.154823
33909 1 0.0583139 0.168584 0.1553
33922 1 0.0876784 0.168421 0.15575
33925 1 0.0897118 0.168752 0.154271
33927 1 0.090818 0.168483 0.15606
33948 1 0.102809 0.169377 0.154361
33953 1 0.104276 0.170199 0.15463
33958 1 0.106007 0.170387 0.15484
33962 1 0.107281 0.16999 0.155874
33957 1 0.105948 0.16957 0.157019
33968 1 0.109146 0.17033 0.156533
33975 1 0.112604 0.169992 0.156687
33973 1 0.111426 0.170075 0.154416
33984 1 0.11491 0.168183 0.154476
33983 1 0.114878 0.168101 0.156103
33994 1 0.11918 0.169736 0.155695
34025 1 0.133239 0.17024 0.155345
33991 1 0.118199 0.172195 0.156484
33996 1 0.12041 0.171044 0.154916
34012 1 0.12736 0.173298 0.154875
33990 1 0.118098 0.17407 0.156703
33997 1 0.120504 0.173797 0.154982
33992 1 0.118538 0.175875 0.156875
33998 1 0.121434 0.175148 0.155137
34009 1 0.126347 0.175022 0.155422
34014 1 0.127666 0.174939 0.156273
33999 1 0.121526 0.176504 0.156006
34003 1 0.12414 0.176687 0.156034
34007 1 0.125653 0.176837 0.156623
32218 1 0.0715028 0.124361 0.157288
32222 1 0.0716006 0.124776 0.159381
32779 1 0.0743782 0.125548 0.157977
32782 1 0.0749831 0.126785 0.159475
32789 1 0.0757544 0.127584 0.157938
32785 1 0.0756183 0.131574 0.157152
32787 1 0.0756741 0.131054 0.158965
32792 1 0.0772008 0.134832 0.158194
32793 1 0.0773627 0.132296 0.159447
32791 1 0.0770824 0.136894 0.157916
33182 1 0.0785414 0.139049 0.158536
33185 1 0.0800434 0.140726 0.157256
33186 1 0.0800905 0.140691 0.159461
33194 1 0.0823466 0.144035 0.157496
33196 1 0.0833502 0.147282 0.158176
33226 1 0.0956348 0.148472 0.158785
33205 1 0.0872713 0.149197 0.15773
33217 1 0.090871 0.149659 0.1574
33219 1 0.0919035 0.14911 0.159667
33228 1 0.0977952 0.148765 0.158774
33231 1 0.0989107 0.150045 0.158214
33245 1 0.123064 0.149813 0.158879
33244 1 0.121879 0.150573 0.157138
33248 1 0.125442 0.148997 0.159311
33251 1 0.127638 0.149124 0.158835
33255 1 0.12964 0.149906 0.159087
33259 1 0.131312 0.15081 0.159149
33256 1 0.129641 0.149896 0.157309
33269 1 0.137266 0.151492 0.157726
33233 1 0.100234 0.152891 0.158264
33612 1 0.119276 0.153555 0.158523
33242 1 0.121217 0.151781 0.159582
33270 1 0.137288 0.151848 0.159584
33266 1 0.135202 0.151519 0.157898
33272 1 0.139584 0.152741 0.159228
33273 1 0.140217 0.152941 0.157646
33694 1 0.141125 0.154149 0.157577
33562 1 0.100339 0.154944 0.158865
33571 1 0.104164 0.156166 0.159625
33570 1 0.104092 0.155684 0.157444
33575 1 0.106334 0.15583 0.157581
33582 1 0.109151 0.156491 0.15791
33584 1 0.110244 0.156976 0.158865
33594 1 0.114663 0.155817 0.159428
33597 1 0.116376 0.15505 0.158938
33697 1 0.141258 0.155258 0.159743
33485 1 0.0693461 0.159279 0.157644
33492 1 0.0725975 0.157501 0.158939
33579 1 0.108526 0.157203 0.159332
33705 1 0.141834 0.157248 0.157553
33480 1 0.0672981 0.160984 0.159107
33478 1 0.0671704 0.162183 0.157847
33495 1 0.0740783 0.160143 0.158805
33496 1 0.074121 0.15994 0.157229
33507 1 0.077562 0.161662 0.158678
33515 1 0.0808207 0.161604 0.159191
33533 1 0.085033 0.162178 0.158076
33520 1 0.0833507 0.161288 0.159509
33535 1 0.0856128 0.161714 0.159434
33713 1 0.142488 0.161356 0.159162
33473 1 0.0656469 0.163455 0.159503
33711 1 0.142363 0.164789 0.15861
33714 1 0.142751 0.162933 0.159329
33712 1 0.142416 0.162741 0.157279
33391 1 0.0473016 0.16601 0.159229
33412 1 0.0493416 0.165387 0.157294
33467 1 0.0631267 0.165623 0.15767
33463 1 0.0617527 0.167071 0.157111
33536 1 0.0885054 0.166917 0.159404
33944 1 0.0969944 0.167708 0.158607
33946 1 0.101772 0.167807 0.15785
33557 1 0.0991948 0.166991 0.158802
33989 1 0.117228 0.16751 0.157148
33987 1 0.116628 0.167532 0.158854
33661 1 0.133931 0.165518 0.157092
34028 1 0.136093 0.167869 0.158523
33696 1 0.141235 0.166657 0.158553
33903 1 0.0495764 0.169841 0.159349
33907 1 0.0566886 0.169669 0.159072
33912 1 0.0603801 0.168451 0.157521
33910 1 0.0585308 0.16911 0.157311
33926 1 0.0898057 0.168233 0.157677
33932 1 0.0923594 0.168358 0.159318
33935 1 0.092878 0.168507 0.15752
33938 1 0.0941515 0.168501 0.158802
33950 1 0.103322 0.168722 0.157526
33951 1 0.10341 0.168247 0.15964
33955 1 0.104893 0.169066 0.158901
33960 1 0.106895 0.170002 0.158387
33972 1 0.111144 0.170522 0.157061
33978 1 0.114081 0.169316 0.157321
33988 1 0.117029 0.170324 0.157949
34027 1 0.134056 0.168325 0.157646
34026 1 0.133916 0.169607 0.15886
34029 1 0.138693 0.168067 0.15906
33986 1 0.116543 0.172188 0.158318
34019 1 0.131228 0.172272 0.1581
34022 1 0.131996 0.171431 0.159221
33985 1 0.116308 0.174813 0.159444
34016 1 0.128881 0.174664 0.157287
33995 1 0.119706 0.177597 0.158085
33993 1 0.118899 0.177999 0.159641
34001 1 0.121997 0.178416 0.158714
34004 1 0.124297 0.178096 0.158455
34013 1 0.127578 0.176815 0.158236
38477 1 0.0735981 0.125632 0.160244
38052 1 0.072008 0.124732 0.161493
38479 1 0.07407 0.125704 0.162019
38487 1 0.0765789 0.129306 0.162356
38481 1 0.0752116 0.128768 0.16082
38489 1 0.0774665 0.130788 0.161678
38501 1 0.079226 0.13457 0.162412
38499 1 0.0789511 0.134411 0.16055
32794 1 0.0782563 0.137591 0.159843
38704 1 0.0786477 0.139346 0.160744
38715 1 0.0806064 0.141606 0.1607
38722 1 0.0826821 0.145822 0.162426
38724 1 0.083068 0.147109 0.160851
38748 1 0.0943279 0.148357 0.16251
38753 1 0.0978647 0.148432 0.160298
38729 1 0.084712 0.149095 0.160172
38735 1 0.0876704 0.149621 0.160698
38740 1 0.0894958 0.148822 0.162373
38754 1 0.0991648 0.149136 0.160817
38757 1 0.100367 0.150697 0.160788
38756 1 0.100152 0.150734 0.162529
38761 1 0.122807 0.150311 0.161132
38762 1 0.124921 0.149387 0.161306
38766 1 0.127419 0.149543 0.161301
38759 1 0.10086 0.152506 0.160767
39128 1 0.119557 0.154154 0.159926
38769 1 0.13083 0.151835 0.161232
38770 1 0.132081 0.152076 0.160057
38771 1 0.134649 0.152699 0.160529
39179 1 0.137284 0.153682 0.161972
39187 1 0.139833 0.153596 0.160445
39071 1 0.100416 0.155356 0.160976
39076 1 0.102092 0.156821 0.161255
39086 1 0.10596 0.156591 0.159881
39106 1 0.112484 0.156905 0.160542
39118 1 0.11621 0.156392 0.161695
39124 1 0.117963 0.155105 0.160369
39166 1 0.13287 0.15461 0.161334
38995 1 0.0679506 0.159327 0.16003
38999 1 0.0706382 0.158725 0.162056
38998 1 0.0701649 0.158805 0.160577
39005 1 0.0735539 0.15858 0.160908
39069 1 0.0999858 0.157213 0.160456
39074 1 0.100931 0.157467 0.162143
39079 1 0.102711 0.157537 0.162509
39082 1 0.104668 0.158022 0.162382
39091 1 0.107408 0.158771 0.161119
39098 1 0.10897 0.158898 0.162186
39113 1 0.11478 0.157206 0.162158
39193 1 0.141196 0.157368 0.161438
39195 1 0.14178 0.158816 0.160993
38991 1 0.0660169 0.161303 0.161809
39025 1 0.0813081 0.160785 0.161941
39032 1 0.0838975 0.160456 0.161508
39196 1 0.142246 0.160839 0.161123
38981 1 0.0616579 0.163561 0.16196
38986 1 0.0639996 0.163465 0.161052
39038 1 0.0867239 0.164202 0.159919
39040 1 0.0875906 0.164983 0.161581
39197 1 0.142517 0.162699 0.16163
39378 1 0.0603376 0.168014 0.160469
38976 1 0.0609227 0.165418 0.161873
39380 1 0.0947781 0.16791 0.162368
39382 1 0.0976441 0.167481 0.162356
39383 1 0.0981952 0.167475 0.160776
39381 1 0.0965019 0.167807 0.160864
39075 1 0.101832 0.166918 0.161256
39190 1 0.140908 0.166985 0.160621
39344 1 0.0460078 0.169671 0.161793
39346 1 0.047479 0.170567 0.161105
33904 1 0.0516281 0.170395 0.159809
39364 1 0.0533992 0.170648 0.160328
39373 1 0.0567429 0.169955 0.161897
39371 1 0.0553314 0.17004 0.160233
39384 1 0.104611 0.168445 0.161931
39421 1 0.11577 0.170337 0.159936
39483 1 0.136088 0.169186 0.161061
39488 1 0.138693 0.168075 0.160574
39357 1 0.0515881 0.171976 0.161634
39352 1 0.0497562 0.171707 0.161414
39366 1 0.054068 0.17161 0.162115
39393 1 0.107674 0.170871 0.161042
39403 1 0.11045 0.171793 0.160295
39404 1 0.110564 0.171805 0.162261