LAMMPS data file via write_data, version 29 Aug 2024, timestep = 1001, units = real

23933 atoms
1 atom types
0 bonds
1 bond types
0 angles
1 angle types
0 dihedrals
1 dihedral types

0 1000 xlo xhi
0 1000 ylo yhi
0 1000 zlo zhi

Masses

1 12

Atoms # full

185 1 1 -0.0096 90.260452 164.073227 18.751209
188 1 1 -0.0082 92.210968 166.915283 19.199823
178 1 1 -0.0113 87.977661 161.0383 19.915846
173 1 1 -0.0239 86.000732 161.988922 20.96563
184 1 1 -0.0095 90.231651 161.765778 19.667265
186 1 1 -0.0067 91.100204 160.598053 21.114136
200 1 1 -0.0033 96.869278 162.300247 21.16081
207 1 1 -0.0024 99.081802 162.478394 21.658649
169 1 1 -0.0424 85.010185 163.515457 21.030941
191 1 1 -0.0068 93.513763 165.006439 19.485672
206 1 1 -0.0030 98.614426 164.76355 20.631527
219 1 1 -0.0023 103.280861 165.15686 21.682104
177 1 1 -0.0236 87.86702 166.735626 19.473934
174 1 1 -0.0482 86.371307 167.676971 20.215998
197 1 1 -0.0061 95.883614 166.548889 20.02441
211 1 1 -0.0030 100.836914 166.041611 21.137676
222 1 1 -0.0027 103.750633 167.308868 21.799154
168 1 1 -0.0711 84.007736 169.278595 21.471302
183 1 1 -0.0158 90.103676 169.328583 19.390415
193 1 1 -0.0102 94.656151 168.465332 19.755671
208 1 1 -0.0045 99.507996 169.148071 20.85471
213 1 1 -0.0039 101.234276 168.83371 21.241375
218 1 1 -0.0038 102.719604 170.071167 21.583523
444 1 1 -0.0515 86.166763 171.167877 21.22616
453 1 1 -0.0272 89.145592 171.596085 20.302092
458 1 1 -0.0163 90.993416 171.422241 19.621479
465 1 1 -0.0248 95.148026 173.07991 19.89426
464 1 1 -0.0174 94.393578 171.152039 19.707922
468 1 1 -0.0100 97.234749 171.343048 20.352865
473 1 1 -0.0059 99.193596 170.871552 20.792908
481 1 1 -0.0042 103.435158 172.520645 21.762554
456 1 1 -0.0242 90.252655 175.578873 21.807228
451 1 1 -0.0204 88.34343 174.242706 21.728094
459 1 1 -0.0383 91.48877 173.703827 21.425591
470 1 1 -0.0072 98.44371 176.090836 20.669174
482 1 1 -0.0042 104.13176 174.892883 21.941647
461 1 1 -0.0186 93.178909 177.801483 22.020746
483 1 1 -0.0045 104.356224 178.988953 22.03417
478 1 1 -0.0053 102.062798 176.901764 21.494865
474 1 1 -0.0062 99.84404 180.416656 21.029627
479 1 1 -0.0053 102.497643 180.916718 21.634079
472 1 1 -0.0062 99.179054 182.325378 20.898926
475 1 1 -0.0058 100.285751 186.306198 21.189535
480 1 1 -0.0054 102.541748 185.33139 21.689123
476 1 1 -0.0055 101.501617 187.802948 21.479443
477 1 1 -0.0053 101.93483 189.937012 21.599079
181 1 1 -0.0016 89.335999 154.187714 23.800789
176 1 1 -0.0029 87.013489 157.386292 23.519262
180 1 1 -0.0029 88.366142 157.353989 22.198288
187 1 1 -0.0069 91.877792 159.466782 22.407574
195 1 1 -0.0042 95.049873 158.440689 24.505747
171 1 1 -0.0192 85.612267 160.972916 22.382195
196 1 1 -0.0042 95.525291 160.954361 22.109831
202 1 1 -0.0024 97.737808 161.132477 22.607681
205 1 1 -0.0019 98.606369 159.964752 24.054546
226 1 1 -0.0017 104.533913 162.504822 23.302586
215 1 1 -0.0019 102.162888 161.4888 23.603373
227 1 1 -0.0015 105.402451 161.337067 24.749462
154 1 1 -0.0328 81.981949 164.633392 24.287769
165 1 1 -0.0349 83.847984 162.753571 23.306782
235 1 1 -0.0014 107.931931 163.190994 23.65004
150 1 1 -0.0289 80.346687 167.138641 24.408379
160 1 1 -0.0558 82.29731 166.175323 22.520023
233 1 1 -0.0019 106.743591 166.297638 22.468439
239 1 1 -0.0017 108.930359 166.597198 22.962936
247 1 1 -0.0015 111.02523 166.974472 23.43594
261 1 1 -0.0012 114.768906 166.176208 24.269825
234 1 1 -0.0022 107.40696 168.683868 22.635481
242 1 1 -0.0019 109.774399 169.088882 23.171799
259 1 1 -0.0015 114.643761 169.368484 24.267286
263 1 1 -0.0014 116.2724 168.622025 24.627621
431 1 1 -0.0428 80.699066 171.608688 23.252251
487 1 1 -0.0032 106.27655 173.158112 22.410912
493 1 1 -0.0024 108.271561 171.231583 22.849533
435 1 1 -0.0520 81.827408 173.861023 23.654766
440 1 1 -0.0373 83.259323 175.693817 24.131884
446 1 1 -0.0263 86.500305 175.856796 23.184214
443 1 1 -0.0254 85.544846 173.716156 22.368061
494 1 1 -0.0029 108.560837 175.420135 22.947439
499 1 1 -0.0021 112.83403 174.833862 23.907276
445 1 1 -0.0369 86.243492 178.677292 24.742939
457 1 1 -0.0365 90.436653 178.393188 23.232553
488 1 1 -0.0036 106.508911 177.257812 22.502697
496 1 1 -0.0026 110.715431 176.724335 23.447348
501 1 1 -0.0025 113.840652 178.6436 24.172804
502 1 1 -0.0021 114.746078 176.532379 24.35574
452 1 1 -0.0524 88.609444 180.150345 24.758596
489 1 1 -0.0039 106.823158 180.239075 22.604116
486 1 1 -0.0046 105.054176 181.805618 22.220575
505 1 1 -0.0026 115.682022 180.344711 24.606068
500 1 1 -0.0028 113.065048 180.691299 24.018534
466 1 1 -0.0118 95.561172 182.216431 23.567371
484 1 1 -0.0049 104.604919 183.909286 22.140587
492 1 1 -0.0042 107.284019 183.523102 22.741749
498 1 1 -0.0035 112.550217 184.214996 23.938238
503 1 1 -0.0031 114.889023 182.580475 24.449787
491 1 1 -0.0044 107.034302 185.696503 22.707542
485 1 1 -0.0049 105.044357 187.154602 22.272984
495 1 1 -0.0038 110.190979 184.630951 23.409628
469 1 1 -0.0092 98.250504 188.427521 24.289288
490 1 1 -0.0046 106.892601 188.061295 22.699688
497 1 1 -0.0046 112.132156 189.641388 23.899233
504 1 1 -0.0047 114.94371 188.754166 24.525187
663 1 1 -0.0078 99.450279 191.058334 23.924246
680 1 1 -0.0045 107.455299 190.25029 22.849133
682 1 1 -0.0045 109.307968 190.43158 23.269426
686 1 1 -0.0049 111.344101 192.287552 23.748264
671 1 1 -0.0043 103.824181 193.280487 22.059952
678 1 1 -0.0043 106.716087 195.317429 22.733921
685 1 1 -0.0050 110.333878 194.728821 23.545025
691 1 1 -0.0061 114.583145 192.928131 24.486378
676 1 1 -0.0041 105.544006 197.224564 22.488668
681 1 1 -0.0048 108.667503 197.010635 23.191959
688 1 1 -0.0060 112.156822 197.633942 23.986423
692 1 1 -0.0070 114.742172 197.595596 24.569963
670 1 1 -0.0049 103.21051 199.262085 24.762177
679 1 1 -0.0045 106.906265 200.793671 22.832798
683 1 1 -0.0055 109.604088 201.611923 23.450485
687 1 1 -0.0064 111.862656 201.32196 23.957642
684 1 1 -0.0058 109.79332 206.010544 23.538143
689 1 1 -0.0075 113.387436 205.898163 24.348768
690 1 1 -0.0076 113.424149 208.440308 24.383015
864 1 1 -0.0071 112.000549 211.186966 24.089531
867 1 1 -0.0077 112.730797 213.163727 24.274651
870 1 1 -0.0089 114.368141 214.58699 24.658997
1024 1 1 -0.0149 124.587097 232.534454 24.34725
1032 1 1 -0.0244 127.033463 233.420685 23.617634
1042 1 1 -0.0428 129.752884 233.362396 24.035397
1046 1 1 -0.0276 131.738235 232.056793 24.566578
1029 1 1 -0.0229 125.937111 234.577728 24.442057
20 1 1 -0.0009 90.241577 149.620682 26.390753
190 1 1 -0.0010 92.855232 150.777817 26.611652
179 1 1 -0.0013 88.212852 152.7258 25.862686
182 1 1 -0.0012 89.788803 151.904205 25.095768
172 1 1 -0.0021 85.752769 155.318756 27.057129
175 1 1 -0.0021 86.828323 156.182404 24.814373
189 1 1 -0.0016 92.655334 154.732559 24.991247
194 1 1 -0.0020 94.732948 156.764923 26.103006
199 1 1 -0.0013 96.78701 156.105194 27.399487
170 1 1 -0.0041 85.018372 159.036163 24.878178
162 1 1 -0.0042 83.254028 159.138733 27.248444
204 1 1 -0.0016 98.289436 158.288971 25.651819
210 1 1 -0.0015 100.501968 158.467133 26.149652
223 1 1 -0.0013 103.900024 159.153275 26.497135
230 1 1 -0.0012 106.112564 159.331406 26.994984
318 1 1 -0.0225 141.715729 159.566681 26.800205
161 1 1 -0.0210 82.357719 162.449921 25.64505
214 1 1 -0.0016 101.845932 159.813019 25.200634
243 1 1 -0.0012 109.827538 161.693359 25.745159
237 1 1 -0.0012 108.483566 160.347458 26.694189
246 1 1 -0.0011 110.696121 160.525604 27.192036
250 1 1 -0.0011 112.040085 161.871506 26.243011
255 1 1 -0.0011 114.25264 162.049652 26.740856
307 1 1 -0.0265 136.844025 160.263229 27.279612
311 1 1 -0.0313 138.76152 161.043457 26.310644
324 1 1 -0.0302 144.019867 162.270966 26.71376
248 1 1 -0.0012 111.171524 163.039276 24.796129
256 1 1 -0.0011 114.569557 163.725418 25.143583
274 1 1 -0.0014 121.207191 164.259888 26.637119
288 1 1 -0.0027 127.329483 163.520737 27.050659
292 1 1 -0.0041 130.234467 163.496307 26.504969
301 1 1 -0.0160 134.004669 162.672318 26.19603
295 1 1 -0.0065 132.824173 164.010559 25.368032
320 1 1 -0.0308 142.509018 163.001587 25.578062
144 1 1 -0.0103 78.540901 167.814056 26.342896
147 1 1 -0.0144 80.022125 165.451813 26.313761
271 1 1 -0.0013 119.539749 167.400192 25.351347
275 1 1 -0.0015 121.752747 167.578583 25.849258
284 1 1 -0.0020 125.762863 167.522308 26.566488
298 1 1 -0.0049 133.263947 167.140274 25.791168
303 1 1 -0.0079 135.071899 167.3517 25.961246
306 1 1 -0.0113 136.696228 166.950958 25.239191
313 1 1 -0.0116 139.265091 167.363312 25.646708
323 1 1 -0.0146 143.893066 165.312347 26.623581
421 1 1 -0.0168 76.513084 170.62468 27.231922
277 1 1 -0.0016 121.860573 170.037521 25.854458
291 1 1 -0.0027 129.704834 168.089691 26.941666
309 1 1 -0.0089 137.824432 168.37619 27.260889
417 1 1 -0.0155 75.244492 172.916428 27.000345
510 1 1 -0.0017 118.055405 173.205048 25.069563
513 1 1 -0.0017 120.738022 172.858673 25.647854
517 1 1 -0.0017 123.018677 172.536469 26.028599
520 1 1 -0.0018 124.338486 171.136185 26.252279
522 1 1 -0.0019 125.122559 173.445648 26.363276
527 1 1 -0.0021 127.644211 173.493057 26.718267
532 1 1 -0.0024 129.615479 171.47673 26.926575
544 1 1 -0.0035 135.841156 171.196701 27.514236
427 1 1 -0.0439 79.084236 175.929657 25.618881
433 1 1 -0.0399 81.23053 175.745529 24.817867
515 1 1 -0.0020 121.985207 175.93605 25.945862
529 1 1 -0.0023 128.134109 175.999603 26.774755
534 1 1 -0.0024 130.137787 173.964203 26.970938
542 1 1 -0.0028 135.476898 175.347122 27.47172
434 1 1 -0.0286 81.269463 178.205704 26.066959
506 1 1 -0.0021 117.458389 177.014633 24.973269
524 1 1 -0.0025 126.303635 178.437424 26.585003
531 1 1 -0.0026 128.68605 178.579468 26.824947
540 1 1 -0.0026 133.754837 178.727966 27.302668
442 1 1 -0.0479 84.55085 180.736618 26.340336
514 1 1 -0.0029 121.407936 181.238052 25.823053
521 1 1 -0.0031 125.120438 181.110519 26.466801
528 1 1 -0.0030 127.819702 181.06192 26.738367
538 1 1 -0.0028 133.042786 180.960342 27.231125
543 1 1 -0.0027 135.779968 179.268539 27.492588
450 1 1 -0.0505 87.730072 182.541122 26.271042
447 1 1 -0.0498 86.665245 183.652115 27.162006
455 1 1 -0.0344 89.664703 183.042328 25.913254
462 1 1 -0.0159 93.354103 183.303131 24.849379
509 1 1 -0.0029 117.799561 181.824799 25.077602
512 1 1 -0.0035 120.271805 183.658447 25.616919
518 1 1 -0.0038 123.102524 183.816238 26.154232
523 1 1 -0.0045 125.726852 184.080673 26.527176
539 1 1 -0.0032 133.642059 183.880493 27.281897
467 1 1 -0.0112 96.413521 185.478577 24.99642
507 1 1 -0.0037 117.575539 184.604904 25.073868
511 1 1 -0.0046 119.884666 186.325623 25.585527
516 1 1 -0.0046 122.272354 185.848679 26.018188
525 1 1 -0.0066 126.862747 186.636322 26.634638
530 1 1 -0.0040 128.685532 184.608475 26.813044
535 1 1 -0.0042 130.478775 187.086212 26.97728
536 1 1 -0.0035 132.611237 185.331436 27.181829
541 1 1 -0.0037 134.367493 187.194778 27.34379
545 1 1 -0.0034 136.341431 186.294769 27.531717
471 1 1 -0.0218 98.560898 189.041168 26.170559
508 1 1 -0.0049 117.707359 187.49411 25.136517
519 1 1 -0.0091 124.108055 187.338379 26.286686
526 1 1 -0.0165 127.395462 189.505737 26.672527
533 1 1 -0.0053 129.998672 189.651794 26.926956
537 1 1 -0.0046 132.786331 189.90921 27.189337
664 1 1 -0.0214 99.664444 192.220062 26.929546
704 1 1 -0.0233 121.672096 191.560272 25.976299
713 1 1 -0.0175 126.098167 192.764786 26.5522
709 1 1 -0.0224 124.142517 190.362976 26.290604
731 1 1 -0.0048 134.72374 191.603638 27.368717
699 1 1 -0.0134 118.598373 194.619278 25.410528
710 1 1 -0.0213 124.240372 194.795395 26.362827
717 1 1 -0.0088 128.775589 192.968262 26.804947
723 1 1 -0.0063 131.502289 193.181854 27.061813
729 1 1 -0.0056 133.865768 193.468475 27.284138
666 1 1 -0.0073 101.712807 195.940521 27.006033
668 1 1 -0.0053 102.213699 197.073898 25.180595
694 1 1 -0.0072 116.259155 195.604385 24.89225
697 1 1 -0.0082 117.450302 197.782974 25.183527
712 1 1 -0.0102 125.184128 196.429001 26.457523
718 1 1 -0.0090 129.453278 195.69368 26.863308
721 1 1 -0.0112 130.958191 197.713577 27.001286
727 1 1 -0.0082 133.723602 198.068222 27.437662
672 1 1 -0.0058 103.937012 200.813873 26.511738
693 1 1 -0.0079 115.948746 199.704834 24.864017
701 1 1 -0.0116 119.669044 199.341293 25.696814
706 1 1 -0.0143 122.115456 198.825165 26.144873
720 1 1 -0.0184 129.984924 199.565659 26.905554
725 1 1 -0.0123 132.738251 200.14064 27.334757
674 1 1 -0.0066 105.272606 203.358383 26.567017
698 1 1 -0.0096 117.664734 201.789932 25.269167
700 1 1 -0.0114 119.37101 202.240326 25.649679
707 1 1 -0.0150 122.422264 203.158417 26.170124
705 1 1 -0.0161 121.7015 201.516251 26.086645
711 1 1 -0.0193 124.503159 202.707794 26.381519
714 1 1 -0.0280 126.777344 202.881378 26.596081
719 1 1 -0.0486 129.461243 202.779556 26.850149
677 1 1 -0.0071 106.396317 205.815308 26.560505
695 1 1 -0.0095 116.828857 206.346313 25.120693
702 1 1 -0.0119 120.067909 206.547089 25.820877
708 1 1 -0.0147 123.987671 206.275879 26.327057
715 1 1 -0.0215 127.249252 205.770706 26.635748
722 1 1 -0.0478 131.086853 205.334305 27.305258
696 1 1 -0.0101 117.43766 208.993286 25.287991
851 1 1 -0.0078 107.471214 210.134521 27.111004
875 1 1 -0.0092 115.783554 211.128052 24.943361
878 1 1 -0.0105 117.474365 212.073242 25.334793
703 1 1 -0.0129 121.361107 209.799515 26.039036
886 1 1 -0.0132 121.810989 211.640945 26.058826
898 1 1 -0.0163 126.248093 210.225922 26.532785
894 1 1 -0.0152 125.030518 211.888596 26.414688
716 1 1 -0.0206 128.660553 209.538528 26.977209
903 1 1 -0.0203 128.863617 211.77124 27.21941
855 1 1 -0.0085 108.489059 212.852295 27.244299
879 1 1 -0.0110 117.619385 214.673508 25.387127
883 1 1 -0.0124 120.277664 212.50676 25.848694
899 1 1 -0.0164 126.743668 214.639969 26.865931
859 1 1 -0.0098 109.979088 215.495041 27.061728
873 1 1 -0.0098 115.366592 216.469208 24.903728
888 1 1 -0.0133 122.158714 216.307617 26.083826
891 1 1 -0.0146 124.625755 216.574905 26.509939
901 1 1 -0.0165 127.795349 217.166779 27.36948
863 1 1 -0.0122 111.889427 218.187347 27.153498
874 1 1 -0.0103 115.703957 220.168869 25.010433
881 1 1 -0.0118 118.935532 219.128983 25.603952
885 1 1 -0.0126 121.17395 218.652832 25.967663
897 1 1 -0.0153 125.315201 220.222687 26.93099
868 1 1 -0.0131 113.032593 220.81778 26.661301
876 1 1 -0.0109 116.909767 221.873505 25.250172
887 1 1 -0.0133 122.097763 222.797699 26.284729
871 1 1 -0.0233 114.782227 224.511017 27.205526
880 1 1 -0.0135 118.194313 225.523651 25.598028
882 1 1 -0.0122 119.382278 223.651047 25.739508
890 1 1 -0.0172 123.572166 224.98819 27.064835
895 1 1 -0.0180 125.194077 223.543701 27.457264
884 1 1 -0.0152 120.455734 228.076813 26.391788
889 1 1 -0.0127 122.738419 227.86731 25.784603
893 1 1 -0.0271 124.997269 227.421799 26.736044
904 1 1 -0.0510 129.325882 227.684769 26.966848
912 1 1 -0.0281 131.255981 228.245728 26.437033
1002 1 1 -0.0142 116.326965 231.285599 27.126278
877 1 1 -0.0168 117.004982 229.757904 26.484137
1014 1 1 -0.0057 121.067467 230.570267 25.162848
896 1 1 -0.0142 125.264664 228.669037 24.994858
1050 1 1 -0.0224 133.907898 231.195526 26.098408
1005 1 1 -0.0120 118.218773 231.988983 26.646603
1013 1 1 -0.0119 120.864708 232.87178 25.923351
1044 1 1 -0.0641 130.801727 233.919647 26.025162
1055 1 1 -0.0332 135.426376 232.959473 27.392029
1009 1 1 -0.0076 119.464981 236.053757 27.336172
1019 1 1 -0.0164 123.184898 234.773529 25.617407
1020 1 1 -0.0210 123.762611 236.720337 25.971493
1045 1 1 -0.0741 130.814606 236.061279 27.066525
1027 1 1 -0.0226 125.33606 237.377487 25.558174
1030 1 1 -0.0169 125.946861 239.116699 25.862133
1037 1 1 -0.0266 128.891647 239.105743 26.101562
1039 1 1 -0.0461 129.563889 237.298553 25.600565
1025 1 1 -0.0119 124.690269 240.249237 26.70553
1036 1 1 -0.0197 128.715576 242.047333 27.471821
1040 1 1 -0.0264 129.720734 240.332489 27.218317
22 1 1 -0.0009 91.147163 145.053635 28.980709
17 1 1 -0.0010 89.339928 146.069595 30.026051
15 1 1 -0.0010 88.833549 148.370895 28.749241
29 1 1 -0.0008 93.281227 148.503204 27.915714
31 1 1 -0.0008 94.622688 148.516739 29.515697
30 1 1 -0.0008 93.707222 146.228577 29.219772
12 1 1 -0.0011 87.843002 149.897415 28.81455
192 1 1 -0.0010 94.319382 152.213074 27.861853
166 1 1 -0.0029 83.901764 157.02002 28.170979
167 1 1 -0.0020 83.919418 154.898407 29.974018
198 1 1 -0.0010 96.47007 154.429413 28.996759
212 1 1 -0.0008 100.895142 154.785721 29.992456
225 1 1 -0.0009 104.451645 156.309784 29.541269
216 1 1 -0.0010 102.239098 156.131622 29.043423
285 1 1 -0.0019 126.279861 156.982285 30.206976
297 1 1 -0.0050 132.862579 156.912537 29.357693
314 1 1 -0.0059 139.623184 156.964554 28.428905
316 1 1 0.0031 140.66098 155.613922 29.134815
330 1 1 0.0047 146.578125 156.501556 29.254206
335 1 1 -0.0020 148.593979 155.711151 29.863708
342 1 1 -0.0026 150.77829 154.580353 30.19813
348 1 1 -0.0041 153.387405 156.976471 29.966381
155 1 1 -0.0038 81.993301 158.817337 29.282145
221 1 1 -0.0011 103.583084 157.477509 28.094397
229 1 1 -0.0011 105.795616 157.65567 28.592243
281 1 1 -0.0016 124.152855 157.987976 30.130091
290 1 1 -0.0028 128.213699 158.639191 29.183905
293 1 1 -0.0043 130.472626 157.72757 29.301876
305 1 1 -0.0129 135.790894 157.4935 28.69779
321 1 1 -0.0033 142.878464 157.303375 28.071285
329 1 1 -0.0058 145.915924 159.202301 27.574841
333 1 1 -0.0038 147.958405 159.004639 28.139893
341 1 1 -0.0033 150.745132 157.754532 29.122578
350 1 1 -0.0048 153.989899 158.904953 29.703985
146 1 1 -0.0050 79.972023 161.884415 29.882547
157 1 1 -0.0069 82.022003 160.623688 27.686077
253 1 1 -0.0010 112.750168 159.865875 28.488506
262 1 1 -0.0011 115.121201 160.881927 28.187725
266 1 1 -0.0011 117.175247 160.222198 29.484203
269 1 1 -0.0012 118.677711 162.405975 27.736536
270 1 1 -0.0012 119.53524 160.110748 30.168055
286 1 1 -0.0024 126.477074 160.909683 28.369089
280 1 1 -0.0018 124.107506 161.73288 28.361431
296 1 1 -0.0088 132.84613 160.655273 27.63389
336 1 1 -0.0049 148.730499 162.531998 28.052368
343 1 1 -0.0041 151.17749 160.397552 28.662359
337 1 1 -0.0040 149.300919 160.330353 28.196934
346 1 1 -0.0046 152.705002 161.834564 28.742682
358 1 1 -0.0082 158.370178 161.662872 30.260036
145 1 1 -0.0066 78.758469 164.882935 29.049164
279 1 1 -0.0016 122.223145 162.802536 28.27001
331 1 1 -0.0145 146.75325 163.852646 28.142742
339 1 1 -0.0044 150.025726 164.988739 28.734335
345 1 1 -0.0046 152.002975 163.668091 28.643961
353 1 1 -0.0058 155.701996 164.788925 29.276224
362 1 1 -0.0084 159.516983 164.112473 30.006628
326 1 1 -0.0022 145.200912 166.776016 27.554209
334 1 1 -0.0038 148.345993 166.412628 28.87849
338 1 1 -0.0040 149.769424 167.575806 29.285086
344 1 1 -0.0042 151.401077 166.826996 29.286594
363 1 1 -0.0080 159.68309 166.329178 30.031199
138 1 1 -0.0087 76.334023 169.063416 29.955622
299 1 1 -0.0044 133.63121 168.364548 27.575434
319 1 1 0.0020 141.911118 169.21463 28.179388
325 1 1 -0.0003 144.334915 169.734329 28.757359
332 1 1 -0.0032 147.820297 168.561203 29.012604
347 1 1 -0.0048 152.745163 169.218887 29.959141
354 1 1 -0.0056 155.891479 168.658249 30.159122
546 1 1 -0.0036 137.640625 170.916168 27.684483
556 1 1 -0.0002 141.310318 171.184906 28.030024
570 1 1 -0.0027 146.989258 170.870087 28.960339
572 1 1 -0.0038 148.147675 173.364883 29.584879
411 1 1 -0.0113 73.074951 174.506683 29.643854
420 1 1 -0.0367 76.021851 176.181931 28.106323
550 1 1 -0.0029 138.633774 175.740768 27.76865
549 1 1 -0.0029 138.125488 173.967514 27.724203
557 1 1 -0.0021 141.82814 173.703583 28.073904
563 1 1 -0.0031 144.262299 175.460602 28.53721
574 1 1 -0.0052 149.558044 175.786102 30.247995
418 1 1 -0.0283 75.383911 177.493622 29.750187
554 1 1 -0.0030 140.472061 178.530563 27.93652
562 1 1 -0.0033 143.35405 177.487885 28.439444
567 1 1 -0.0041 146.10318 177.027588 29.258381
571 1 1 -0.0051 147.894455 178.812531 29.97168
428 1 1 -0.0174 79.371719 180.074738 28.326557
548 1 1 -0.0029 138.115875 179.27713 27.712851
553 1 1 -0.0031 139.996826 180.594482 27.887644
560 1 1 -0.0033 142.496048 179.352753 28.354862
565 1 1 -0.0040 145.234711 179.132431 29.168381
430 1 1 -0.0138 79.883179 182.790802 30.273611
438 1 1 -0.0330 82.938751 183.138031 28.058899
547 1 1 -0.0032 137.840424 184.509262 27.676584
558 1 1 -0.0035 141.99321 182.520294 28.497845
564 1 1 -0.0041 144.633469 182.288437 29.281841
568 1 1 -0.0046 146.151886 184.22937 29.901758
436 1 1 -0.0126 82.224945 185.195831 29.94112
441 1 1 -0.0280 84.171509 185.060226 28.642828
449 1 1 -0.0317 87.368118 185.360977 27.802984
454 1 1 -0.0125 89.662407 187.072021 27.951696
551 1 1 -0.0035 139.010849 186.444809 27.954151
559 1 1 -0.0038 142.190109 185.447433 28.796841
566 1 1 -0.0044 145.303055 186.460083 29.790796
448 1 1 -0.0096 86.84053 187.943787 29.264669
460 1 1 -0.0111 91.669022 188.469574 28.032019
463 1 1 -0.0117 93.921951 189.599747 27.901596
552 1 1 -0.0042 139.987717 189.787933 28.522863
561 1 1 -0.0042 143.23819 187.603806 29.273779
555 1 1 -0.0038 140.626175 187.511993 28.512323
632 1 1 -0.0081 87.967873 190.47699 30.18836
650 1 1 -0.0112 93.867661 192.424042 29.337927
657 1 1 -0.0219 97.216537 191.009354 27.58869
736 1 1 -0.0043 137.413147 190.504181 27.845331
747 1 1 -0.0052 142.734161 192.72467 29.529428
752 1 1 -0.0050 145.057709 191.339249 30.073902
645 1 1 -0.0121 93.203613 193.933075 30.302227
654 1 1 -0.0184 96.029861 193.435638 29.176031
656 1 1 -0.0273 96.659889 195.293457 29.772442
733 1 1 -0.0056 135.522934 194.496277 27.643209
740 1 1 -0.0051 139.30838 193.354828 28.611149
750 1 1 -0.0059 144.337646 194.834061 30.12052
660 1 1 -0.0127 98.790916 196.031845 28.577459
741 1 1 -0.0067 139.599411 195.784317 28.887964
746 1 1 -0.0111 142.558868 197.70929 29.863438
735 1 1 -0.0075 137.149384 198.741653 28.450016
734 1 1 -0.0092 136.32074 200.286118 28.347
739 1 1 -0.0111 138.798462 199.073639 28.937984
743 1 1 -0.0203 141.207413 200.122421 29.695065
665 1 1 -0.0064 101.536018 201.404388 28.346203
669 1 1 -0.0067 102.910744 203.387634 28.049112
737 1 1 -0.0137 137.604843 201.703659 28.823269
742 1 1 -0.0206 140.37912 202.722794 29.682468
673 1 1 -0.0071 104.239929 205.800385 27.901892
726 1 1 -0.0747 132.952423 205.980835 27.879812
730 1 1 -0.0448 133.89801 204.144226 27.991192
738 1 1 -0.0215 138.670181 204.35907 29.341328
667 1 1 -0.0069 102.009918 207.321091 29.723431
675 1 1 -0.0074 105.443802 208.162766 27.818624
724 1 1 -0.0745 131.882309 207.772247 27.7299
732 1 1 -0.0791 134.906158 206.658035 28.48151
728 1 1 -0.0919 133.791977 208.434204 28.318035
839 1 1 -0.0070 103.107178 210.437347 29.91984
908 1 1 -0.0414 130.634903 211.664459 27.705042
919 1 1 -0.0841 134.25119 210.755615 28.639118
843 1 1 -0.0076 104.442467 212.372681 29.633814
846 1 1 -0.0084 105.989548 213.786209 29.068085
911 1 1 -0.0317 131.050034 213.970612 28.012554
916 1 1 -0.0671 132.756622 212.399826 28.358484
923 1 1 -0.0541 135.415146 213.318573 29.64007
849 1 1 -0.0094 107.32489 215.721481 28.782009
857 1 1 -0.0101 108.863693 216.501907 28.042435
906 1 1 -0.0184 129.555389 215.614716 27.731884
918 1 1 -0.0279 133.506699 217.006271 29.692301
914 1 1 -0.0381 132.31926 215.109985 28.641346
854 1 1 -0.0125 107.852562 218.983521 30.214985
860 1 1 -0.0118 109.987389 218.958832 28.035929
909 1 1 -0.0202 130.83609 218.101486 28.714386
861 1 1 -0.0207 111.338623 222.493698 30.240208
902 1 1 -0.0242 128.067032 221.402618 28.260309
862 1 1 -0.0204 111.795959 225.671707 29.968069
865 1 1 -0.0232 112.663109 224.01799 29.891455
869 1 1 -0.0205 113.717728 224.993454 28.530817
907 1 1 -0.0438 130.094467 223.260223 29.697922
866 1 1 -0.0151 112.663864 228.292068 28.926487
872 1 1 -0.0244 114.839798 227.961456 27.746494
892 1 1 -0.0356 124.729836 226.17453 28.477219
905 1 1 -0.0924 129.364227 226.103149 30.088104
900 1 1 -0.0473 127.212967 226.965775 27.69643
910 1 1 -0.0424 130.996246 227.049316 28.106775
917 1 1 -0.0339 132.978897 225.983795 29.903732
921 1 1 -0.0142 135.203308 226.980225 28.794113
1059 1 1 -0.0159 136.592819 230.721466 28.049374
992 1 1 -0.0103 111.808167 231.525513 28.711874
997 1 1 -0.0078 114.625198 233.622833 28.340002
1063 1 1 -0.0180 138.09317 232.887054 29.367123
1001 1 1 -0.0062 116.192444 234.878296 28.139277
1054 1 1 -0.0427 135.392349 236.052521 29.06608
1060 1 1 -0.0262 137.20929 236.416168 30.20866
998 1 1 -0.0073 114.759361 237.343414 29.319473
1006 1 1 -0.0053 118.695274 237.919312 28.14768
999 1 1 -0.0056 114.89061 241.001465 30.295551
1004 1 1 -0.0051 117.486191 241.477203 29.559559
1008 1 1 -0.0051 118.963013 240.768188 28.870594
1016 1 1 -0.0062 122.019432 240.029633 27.620651
1018 1 1 -0.0042 122.714417 244.23999 29.192652
1026 1 1 -0.0093 125.163254 244.608124 28.527039
1023 1 1 -0.0103 124.273117 242.553131 27.588724
1034 1 1 -0.0090 127.591759 244.960785 28.831547
1043 1 1 -0.0126 130.543411 243.551071 29.331064
24 1 1 -0.0015 92.05275 140.486572 31.570673
26 1 1 -0.0020 92.505539 138.203064 32.86565
21 1 1 -0.0016 90.51725 141.276627 32.514294
16 1 1 -0.0012 89.103386 144.913147 31.351862
34 1 1 -0.0013 95.657448 143.439911 32.526714
10 1 1 -0.0012 86.874672 148.347839 31.498804
35 1 1 -0.0007 96.225174 149.159103 31.208302
41 1 1 -0.0004 97.952202 150.165375 32.922794
289 1 1 -0.0014 127.896095 150.846298 32.819923
85 1 1 -0.0016 131.711456 150.28537 32.567749
302 1 1 -0.0018 135.00061 150.524094 32.42868
310 1 1 -0.0017 138.516922 151.502777 32.128769
315 1 1 -0.0013 140.606293 151.1138 32.751614
351 1 1 -0.0033 154.314255 150.373734 32.49131
359 1 1 -0.0055 158.680817 151.01207 32.803879
163 1 1 -0.0016 83.303406 153.34494 32.608074
201 1 1 -0.0006 97.338623 153.261688 30.44363
203 1 1 -0.0005 98.207176 152.093933 31.890507
209 1 1 -0.0005 100.419716 152.272079 32.388359
217 1 1 -0.0006 102.632248 152.450226 32.886192
224 1 1 -0.0007 103.976234 153.796112 31.937183
231 1 1 -0.0008 106.188766 153.974274 32.43502
283 1 1 -0.0013 125.467079 151.816071 32.764565
300 1 1 -0.0020 133.689178 151.955154 31.533087
304 1 1 -0.0025 135.667786 153.624908 30.498245
308 1 1 -0.0019 136.92926 152.458832 31.159662
312 1 1 -0.0019 138.941986 153.780609 30.381384
317 1 1 -0.0002 141.14093 153.224091 30.991734
327 1 1 0.0026 145.562241 153.821701 30.671509
322 1 1 -0.0001 143.700836 152.917801 31.592539
328 1 1 -0.0009 145.766968 151.768326 32.479763
340 1 1 -0.0023 150.718704 151.935318 31.613846
349 1 1 -0.0035 153.861191 153.186234 31.249294
355 1 1 -0.0047 156.944122 151.79213 32.300453
357 1 1 -0.0056 158.121185 153.235291 32.003254
364 1 1 -0.0074 160.813049 153.215149 32.722687
158 1 1 -0.0022 82.180733 156.21579 31.699451
232 1 1 -0.0009 106.505722 155.65004 30.837749
238 1 1 -0.0009 108.876709 156.666077 30.536961
241 1 1 -0.0009 109.745285 155.498352 31.983826
249 1 1 -0.0009 111.957848 155.676483 32.481682
272 1 1 -0.0011 119.956894 155.40773 32.312466
276 1 1 -0.0012 121.754074 154.324234 32.417267
282 1 1 -0.0015 124.43718 155.56723 31.215281
287 1 1 -0.0016 126.581314 154.476654 31.322474
294 1 1 -0.0026 130.903824 155.255371 30.384226
352 1 1 -0.0044 155.253357 154.707138 30.933701
361 1 1 -0.0075 159.509781 156.291061 31.756994
366 1 1 -0.0096 162.240936 156.574814 32.446781
152 1 1 -0.0033 81.058044 159.086655 30.790821
251 1 1 -0.0009 112.274765 157.352219 30.88442
260 1 1 -0.0010 114.64579 158.368286 30.583622
267 1 1 -0.0011 117.283615 157.13472 32.101635
264 1 1 -0.0011 116.858315 158.546417 31.081463
273 1 1 -0.0013 120.872574 157.753204 30.985214
356 1 1 -0.0066 157.443085 157.537613 30.902218
371 1 1 -0.0117 164.453796 158.466644 32.69677
369 1 1 -0.0115 163.108994 159.560394 32.062603
141 1 1 -0.0041 78.19857 163.777527 32.200523
372 1 1 -0.0135 165.101807 163.191635 31.731146
367 1 1 -0.0127 162.765427 163.679474 30.987103
377 1 1 -0.0170 167.498718 163.576431 32.275234
365 1 1 -0.0090 161.120941 167.488571 30.438435
374 1 1 -0.0249 165.947357 165.500015 31.385025
381 1 1 -0.0201 170.992859 168.015503 32.107964
413 1 1 -0.0069 73.841278 170.318604 33.051186
592 1 1 -0.0058 157.473907 170.475143 30.727997
360 1 1 -0.0067 158.860397 168.316132 30.38953
601 1 1 -0.0074 161.814789 170.725159 31.241449
370 1 1 -0.0172 164.083099 168.615143 31.008062
376 1 1 -0.0157 166.858139 170.206924 31.675699
415 1 1 -0.0101 73.936081 171.940613 30.392399
575 1 1 -0.0045 150.431274 173.272629 30.303705
588 1 1 -0.0059 156.44722 172.968231 31.178186
596 1 1 -0.0059 159.414215 172.301926 31.336065
615 1 1 -0.0230 170.404846 171.33049 32.293541
408 1 1 -0.0068 71.746414 175.118652 31.4491
582 1 1 -0.0054 153.139572 173.59227 30.975687
585 1 1 -0.0059 154.794662 174.150299 31.271198
599 1 1 -0.0054 161.219147 173.75499 31.877985
604 1 1 -0.0079 163.88681 173.599426 32.150475
609 1 1 -0.0090 166.006012 174.564087 32.630657
580 1 1 -0.0080 152.918976 178.557892 31.547852
583 1 1 -0.0079 153.663361 176.646347 31.627554
590 1 1 -0.0098 156.950577 177.048615 32.14061
598 1 1 -0.0081 160.893768 177.20578 32.67944
412 1 1 -0.0074 73.616379 179.70517 32.933647
423 1 1 -0.0284 76.854774 179.390228 30.435877
576 1 1 -0.0068 150.843246 179.668442 30.973944
581 1 1 -0.0090 152.998016 180.835968 31.746937
589 1 1 -0.0185 156.740509 181.002716 32.853264
594 1 1 -0.0201 158.27829 179.415009 32.857262
425 1 1 -0.0088 78.638214 182.830048 31.665237
579 1 1 -0.0067 152.120148 183.175186 31.589249
587 1 1 -0.0082 156.185623 183.482269 32.685318
439 1 1 -0.0064 83.10553 187.009659 30.65452
573 1 1 -0.0052 148.537506 184.866013 30.648697
577 1 1 -0.0056 151.047333 185.63913 31.376242
586 1 1 -0.0064 154.990814 185.960724 32.381428
593 1 1 -0.0068 157.612152 185.737625 33.053017
569 1 1 -0.0048 146.908829 188.709381 30.398157
578 1 1 -0.0054 152.019318 187.993576 31.732187
584 1 1 -0.0055 154.336349 188.403625 32.336952
591 1 1 -0.0057 157.120468 187.839874 32.97097
626 1 1 -0.0062 85.367569 191.781082 32.590382
759 1 1 -0.0051 148.907867 191.411453 31.096964
773 1 1 -0.0050 155.448914 191.644684 32.979237
769 1 1 -0.0051 154.295242 190.204178 32.422302
630 1 1 -0.0067 87.178001 194.288605 32.930889
642 1 1 -0.0091 90.8209 193.576553 30.861725
754 1 1 -0.0054 146.127319 192.997742 30.479319
762 1 1 -0.0054 149.752899 193.610901 31.475903
763 1 1 -0.0052 151.519165 192.924652 31.880331
639 1 1 -0.0097 90.565285 197.302963 32.813869