LAMMPS data file via write_data, version 29 Aug 2024, timestep = 0, units = real

1543 atoms
1 atom types
0 bonds
1 bond types
0 angles
1 angle types
0 dihedrals
1 dihedral types

0 1000 xlo xhi
0 1000 ylo yhi
0 1000 zlo zhi

Masses

1 12

Atoms # full

532 1 1 -0.0337 80.117439 161.922958 156.284027
1254 1 1 -0.4235 73.653603 151.920197 176.867203
1191 1 1 -0.0781 133.719391 169.679916 169.353149
1334 1 1 -0.0616 73.989357 166.293625 179.361618
1531 1 1 -0.0124 77.212944 163.555008 187.822021
615 1 1 -0.0723 131.065262 168.049438 150.500458
1459 1 1 -0.0122 62.316509 152.135391 182.921173
673 1 1 -0.0820 104.389778 169.726364 147.812683
905 1 1 -0.0334 56.364574 164.386276 169.888794
1021 1 1 -0.0312 108.969727 158.898178 162.185715
1414 1 1 0.0003 64.885986 140.547684 189.876083
581 1 1 -0.1036 117.218903 165.942001 150.318405
1440 1 1 -0.0124 78.389168 143.734329 187.6922
1405 1 1 -0.0098 74.180794 133.796967 184.976532
269 1 1 -0.0756 74.91806 129.86058 153.747299
507 1 1 -0.0387 66.249458 158.076294 152.219711
757 1 1 -0.0309 80.428932 130.98468 167.051392
1195 1 1 -0.0452 135.325653 170.08194 166.905365
1229 1 1 -0.0948 76.170555 137.960434 172.79953
40 1 1 -0.0460 73.494652 147.746338 141.157944
1358 1 1 -0.0452 112.454285 167.007675 174.110657
1306 1 1 -0.0236 61.132439 160.289337 177.367447
572 1 1 -0.0913 101.670891 168.085449 151.84343
592 1 1 -0.0435 120.98774 157.51506 150.111206
1059 1 1 -0.0353 133.981567 158.673172 165.300354
1304 1 1 -0.0166 61.085945 161.360382 171.61441
342 1 1 -0.0233 70.778023 156.517792 149.174942
1281 1 1 -0.0347 84.100777 154.423309 177.92247
879 1 1 -0.0203 127.141754 152.771362 164.745956
419 1 1 -0.0373 118.582138 153.140854 153.61937
789 1 1 -0.0233 76.716507 157.022003 167.262756
1410 1 1 0.0002 62.901932 141.265259 190.355927
41 1 1 -0.0295 73.690605 149.761322 141.3918
1234 1 1 -0.0240 76.749542 141.292358 174.961197
567 1 1 -0.0820 99.031746 164.764435 149.384583
1268 1 1 -0.1352 77.272285 152.666565 170.998428
714 1 1 -0.0741 126.347412 175.02182 155.422089
1156 1 1 -0.0398 120.899147 169.169708 168.408905
621 1 1 -0.0207 132.944366 164.98349 153.067535
1025 1 1 -0.0511 111.347885 159.208633 165.981171
617 1 1 -0.0109 131.971008 162.895355 155.616013
425 1 1 -0.0466 121.569931 152.56749 152.721085
355 1 1 -0.0638 88.425186 147.365036 154.507065
1424 1 1 0.0197 70.322189 142.504059 190.006729
992 1 1 -0.0740 98.749107 163.338531 166.52066
395 1 1 -0.0326 104.091743 155.683853 157.443878
297 1 1 -0.1141 76.981102 146.192001 149.681259
1328 1 1 -0.1609 71.988182 158.735718 172.03688
678 1 1 -0.0440 106.894531 170.001755 158.387177
1449 1 1 -0.0170 80.018188 143.150787 183.02417
426 1 1 -0.0528 121.879128 150.573441 157.137939
1296 1 1 -0.0171 57.602623 158.166336 177.467224
896 1 1 -0.0458 138.646622 155.911835 163.055832
1487 1 1 -0.0213 74.467941 147.486465 186.027328
112 1 1 -0.0363 107.389313 155.123459 144.890991
282 1 1 -0.0450 71.397614 136.331192 150.107452
71 1 1 -0.1151 83.236504 154.64743 137.173218
513 1 1 -0.0152 71.216507 157.678833 153.923904
785 1 1 -0.0173 82.308418 145.209457 164.399612
1169 1 1 -0.1242 125.994995 178.709839 163.706573
188 1 1 -0.0209 103.918472 158.59552 142.55632
1488 1 1 -0.0401 75.050125 148.252411 183.363953
536 1 1 -0.0373 83.251755 160.231644 151.472031
1036 1 1 -0.0431 119.270813 163.324783 168.091171
942 1 1 -0.0134 71.840828 158.103455 165.658569
606 1 1 -0.0232 127.103867 162.202377 150.798294
1125 1 1 -0.0809 110.041023 172.952515 164.612686
1134 1 1 -0.0216 113.522148 171.320801 160.294083
568 1 1 -0.0196 99.194794 166.99086 158.801865
569 1 1 -0.0232 99.219078 165.852066 155.091599
201 1 1 -0.0683 112.503143 162.101151 139.202713
1013 1 1 -0.0282 106.529747 167.777802 167.427521
657 1 1 -0.0187 58.313889 168.583878 155.299789
193 1 1 -0.0310 107.479225 168.034225 140.239227
457 1 1 -0.0207 135.529755 154.173309 149.311279
719 1 1 -0.1165 127.666466 174.939484 156.272858
1127 1 1 -0.0834 110.564011 171.805359 162.261261
809 1 1 -0.0180 84.712006 149.094559 160.172058
1398 1 1 -0.0018 66.119164 132.522476 182.633041
401 1 1 -0.0774 107.802055 154.511337 149.116516
919 1 1 -0.0392 60.257034 159.720322 166.434082
1113 1 1 -0.0161 56.923485 169.147598 167.988831
109 1 1 -0.0245 104.9319 155.955429 142.864655
343 1 1 -0.0258 72.707672 157.004013 149.088989
91 1 1 -0.0755 92.672699 153.920609 147.034485
1394 1 1 -0.0393 114.507385 169.249466 173.708206
1350 1 1 -0.0599 83.56337 158.19136 178.301529
172 1 1 -0.1057 97.629456 161.327118 146.534714
169 1 1 -0.0861 95.163658 163.907593 146.638412
883 1 1 -0.0256 128.505249 155.289017 164.490311
352 1 1 -0.0764 86.605812 147.017273 155.307465
1204 1 1 -0.0045 70.999367 125.747276 171.145859
935 1 1 -0.0196 66.638969 161.954346 165.886597
1142 1 1 -0.0383 116.360039 173.363831 165.168015
938 1 1 -0.0222 67.950562 159.326843 160.030396
277 1 1 -0.0721 61.840767 144.462799 149.825485
429 1 1 -0.0645 123.417038 150.696686 154.487091
706 1 1 -0.0312 121.533005 169.547943 154.062363
1323 1 1 -0.1070 70.164726 163.795609 179.286102
522 1 1 -0.0464 75.631058 157.925049 149.904831
1170 1 1 -0.1077 126.190796 178.041031 160.193817
1052 1 1 -0.0946 126.321938 165.702484 170.03569
1017 1 1 -0.0284 107.407631 158.771103 161.118896
57 1 1 -0.0700 78.07003 148.394089 141.757477
1419 1 1 0.0010 66.769348 144.904572 191.257111
783 1 1 -0.0239 81.845734 144.022263 162.890366
1258 1 1 -0.0667 74.663292 151.151108 174.424316
1064 1 1 -0.0665 136.343002 163.989563 169.982437
1225 1 1 -0.0167 79.65358 129.591934 172.22966
1342 1 1 -0.0926 78.737129 163.0392 177.650543
579 1 1 -0.0115 116.627838 167.531891 158.853577
454 1 1 -0.0309 134.076828 151.621735 152.096375
1396 1 1 -0.0474 115.828957 173.036972 170.643112
475 1 1 -0.0032 50.362099 161.225952 155.738876
270 1 1 -0.0345 75.02417 128.039688 154.056458
1130 1 1 -0.0525 112.283371 173.415695 164.858002
1151 1 1 -0.0464 119.068451 171.380417 168.166885
63 1 1 -0.0557 80.36084 147.503311 146.318771
649 1 1 -0.0113 141.952789 160.700119 150.925781
1280 1 1 -0.0346 82.974434 154.354111 176.570587
365 1 1 -0.2140 92.995476 153.046875 148.542725
702 1 1 -0.0242 120.409866 171.043808 154.915802
92 1 1 -0.1021 92.726425 156.817627 144.630707
73 1 1 -0.0219 83.978928 149.058945 146.078934
1464 1 1 -0.0175 64.490715 152.109375 184.783691
1224 1 1 -0.0346 78.933907 132.762695 173.538544
1360 1 1 -0.0533 113.899124 163.992859 172.671585
1540 1 1 0.0090 80.042755 158.113617 184.554184
226 1 1 -0.0282 133.102325 161.594955 146.244919
1256 1 1 -0.0573 74.237358 150.820374 179.877991
1437 1 1 -0.0265 77.315125 138.847519 188.280396
511 1 1 -0.0185 68.456604 159.106567 154.546021
1250 1 1 -0.0117 57.841705 155.961594 179.131119
382 1 1 -0.0269 99.432671 156.766769 153.532013
422 1 1 -0.0532 119.636879 152.359024 155.612381
1060 1 1 -0.0286 135.895416 160.140778 165.821365
996 1 1 -0.0286 100.34922 158.988022 164.701859
650 1 1 -0.0195 142.000259 163.32869 154.997681
774 1 1 -0.0767 78.829407 136.529938 163.994522
88 1 1 -0.0555 90.813019 152.911026 147.367981
891 1 1 -0.0266 132.870453 154.609879 161.334259
1092 1 1 -0.0189 47.818714 173.08046 164.675644
1154 1 1 -0.1938 120.046211 174.671387 167.788086
839 1 1 -0.0393 95.745331 155.823502 166.43399
944 1 1 -0.0153 73.332458 157.885178 166.529648
854 1 1 -0.0224 102.0924 156.82103 161.255112
688 1 1 -0.0644 111.134537 170.958099 149.129776
836 1 1 -0.0541 93.231102 154.566788 168.76033
1337 1 1 -0.0757 74.407722 163.378265 176.674179
541 1 1 -0.0236 84.261459 163.148666 153.897781
46 1 1 -0.0316 75.771637 150.68074 140.260895
387 1 1 -0.0299 101.026703 156.380127 156.715805
184 1 1 -0.0223 102.372116 162.457703 143.277405
222 1 1 -0.0825 118.329308 160.974823 147.741974
378 1 1 -0.0375 98.34153 154.415695 149.6828
1469 1 1 -0.0033 66.62925 149.010803 189.489456
90 1 1 -0.0660 92.243835 155.057281 145.829071
761 1 1 -0.1830 76.752747 138.139801 167.152527
1287 1 1 -0.0182 52.101654 168.07515 171.895935
566 1 1 -0.0199 98.683647 166.23024 156.449722
802 1 1 -0.1397 82.884445 151.827225 167.808716
101 1 1 -0.0701 100.557716 153.730972 142.858353
164 1 1 -0.3668 91.596664 162.514496 144.829803
79 1 1 -0.0204 85.866493 149.289459 146.337372
202 1 1 -0.0352 112.617897 159.033051 140.65596
1123 1 1 -0.0689 109.401085 171.307755 163.418716
1248 1 1 -0.0237 56.087093 156.584702 170.608032
377 1 1 -0.0465 98.319992 155.404022 154.358459
39 1 1 -0.0214 72.825996 153.035522 144.015121
1321 1 1 -0.0586 69.405571 159.941849 175.54953
676 1 1 -0.0544 105.948021 169.569702 157.019318
813 1 1 -0.0183 86.271507 149.528 162.555984
768 1 1 -0.1058 78.053352 136.839127 165.375183
674 1 1 -0.0565 104.893036 169.065521 158.901001
1203 1 1 -0.0014 70.515717 129.687286 179.334625
742 1 1 -0.4033 75.211609 128.768326 160.81958
492 1 1 -0.0230 58.862263 167.647476 154.08963
1199 1 1 -0.0007 68.060799 128.040298 175.901306
1246 1 1 -0.0162 78.863029 143.385895 178.92485
1527 1 1 -0.0500 75.248306 165.647659 186.375595
968 1 1 -0.0581 88.10527 161.11232 165.594162
762 1 1 -0.0284 77.119194 141.35553 169.223633
14 1 1 -0.0246 71.223305 143.684464 142.882996
571 1 1 -0.0300 100.844032 167.190811 155.963348
1444 1 1 -0.0165 78.97747 141.574844 187.575211
941 1 1 -0.0158 71.11734 159.24173 166.677933
95 1 1 -0.0554 97.29718 155.372162 145.81427
906 1 1 -0.1307 56.711292 159.680634 166.250183
265 1 1 -0.0154 73.233955 126.131134 153.585205
1152 1 1 -0.0247 119.283279 178.442627 163.682114
952 1 1 -0.0390 79.021179 158.462036 167.944168
1319 1 1 -0.0810 68.707527 162.884827 180.906052
338 1 1 -0.0509 68.415161 155.857391 151.985184
618 1 1 -0.0690 132.637909 168.016754 151.650177
805 1 1 -0.0393 83.207695 150.117126 166.327621
487 1 1 -0.0196 56.815639 158.700806 153.334732
1355 1 1 -0.0837 109.822891 165.862869 173.025604
1221 1 1 -0.0402 77.890015 134.343399 180.357529
978 1 1 -0.0545 92.419426 164.911407 166.313187
1232 1 1 -0.4576 76.576401 136.292465 173.460297
157 1 1 -0.0391 87.987755 165.661026 143.266846
371 1 1 -0.0842 95.634773 148.471512 158.785278
845 1 1 -0.0417 99.662285 151.272079 164.25972
128 1 1 -0.0799 79.068138 158.733215 146.64798
1485 1 1 -0.0578 74.049294 149.469345 183.992386
1470 1 1 -0.0699 67.480881 157.334427 185.573425
629 1 1 -0.0509 136.093018 167.869415 158.522827
1472 1 1 -0.0052 67.81424 149.395401 187.583511
763 1 1 -0.0437 77.453033 140.873947 165.576523
979 1 1 -0.0806 92.873543 161.422821 168.244385
749 1 1 -0.0709 78.034477 128.384201 165.7397
253 1 1 -0.0317 68.030128 129.754761 149.22998
1526 1 1 -0.0112 74.984253 160.86441 188.813538
476 1 1 -0.0038 51.310818 164.129807 155.245956
396 1 1 -0.0334 104.326752 154.611588 151.588547
1259 1 1 -0.0672 75.429909 154.438568 174.126099
216 1 1 -0.0541 116.708084 166.611862 146.213943
372 1 1 -0.0966 96.858101 153.8564 153.921143
1263 1 1 -0.0204 76.154907 147.211212 176.263123
1243 1 1 -0.0245 78.700935 141.50798 178.664917
110 1 1 -0.0206 105.942276 157.214661 143.090363
1523 1 1 -0.0179 73.368065 162.943497 188.557831
1135 1 1 -0.0196 114.601669 171.643311 161.892563
1061 1 1 -0.0354 135.921921 160.294724 167.557892
412 1 1 -0.0300 114.215935 155.422668 155.447342
858 1 1 -0.0526 112.483528 156.905121 160.542465
1467 1 1 -0.0014 65.792267 147.440521 191.617126
984 1 1 -0.0633 96.08786 160.738693 168.123047
1100 1 1 -0.0239 52.15807 172.664612 163.386063
1181 1 1 -0.1009 130.19223 169.73764 169.587372
171 1 1 -0.1043 95.896446 162.302444 146.511948
1530 1 1 -0.1022 76.98555 166.848297 182.167374
671 1 1 -0.0821 103.908165 169.826874 150.956802
680 1 1 -0.0378 107.281487 169.9897 155.873734
841 1 1 -0.0365 96.251518 152.350159 166.520966
249 1 1 -0.0969 111.64679 168.739441 142.488037
792 1 1 -0.0481 77.54744 155.50589 169.608032
1062 1 1 -0.0542 136.110519 168.447205 168.088852
597 1 1 -0.0560 123.157806 165.038788 151.222107
972 1 1 -0.0532 89.58963 163.152161 165.59874
1089 1 1 -0.0071 46.007767 169.671219 161.792542
1055 1 1 -0.0721 128.643173 159.121689 170.096161
772 1 1 -0.0694 78.588577 140.972275 162.763733
359 1 1 -0.0279 89.487068 148.561157 149.088486
347 1 1 -0.0687 80.774834 147.408813 149.002411
1233 1 1 -0.0283 76.625816 140.754852 172.432281
6 1 1 -0.0158 67.13652 143.658279 144.210495
245 1 1 -0.0372 107.58989 170.119995 142.139343
345 1 1 -0.1114 76.195389 157.077972 148.523376
331 1 1 -0.0689 63.349548 146.52063 149.074432
1401 1 1 -0.0032 69.891548 132.160522 182.628922
692 1 1 -0.0373 112.655334 169.830673 150.684982
81 1 1 -0.1707 86.662575 155.799301 141.267334
1468 1 1 -0.0195 66.185349 152.300415 185.167984
1005 1 1 -0.0203 104.441765 166.522278 164.097641
535 1 1 -0.0549 83.145195 160.229279 148.659531
596 1 1 -0.1024 122.606354 161.109711 150.808182
557 1 1 -0.0236 92.87796 168.50737 157.520264
610 1 1 -0.0207 129.187744 163.533554 150.87825
619 1 1 -0.0148 132.674561 163.964096 154.136963
278 1 1 -0.0312 64.035934 142.849838 147.896576
1525 1 1 -0.0240 74.62661 164.747849 187.607803
524 1 1 -0.0321 76.998421 160.370422 153.931152
1139 1 1 -0.0640 116.078224 173.339447 167.005157
1507 1 1 -0.0492 66.837624 160.342743 182.086914
964 1 1 -0.0221 86.599594 161.594131 162.931763
1244 1 1 -0.0143 78.77388 144.922668 180.211288
1422 1 1 0.0036 68.599098 146.353958 190.088684
963 1 1 -0.0361 86.32029 160.43898 164.976532
620 1 1 -0.0221 132.832657 163.541855 148.136597
383 1 1 -0.1085 100.233681 152.89122 158.263565
1538 1 1 -0.0607 79.301323 165.366852 183.329346
337 1 1 -0.2533 67.010872 154.16803 151.733215
1496 1 1 -0.0237 77.619881 146.787415 183.958588
822 1 1 -0.0615 88.967239 149.414978 167.158203
800 1 1 -0.0220 82.23967 147.661118 166.58165
1058 1 1 -0.0235 133.661102 157.620361 162.93866
679 1 1 -0.1844 106.945549 170.73114 148.94104
1109 1 1 -0.0145 55.331367 170.03952 160.233017
780 1 1 -0.0164 80.591087 145.411194 168.426132
47 1 1 -0.0651 75.98333 156.374191 139.27684
375 1 1 -0.0404 97.872276 154.198624 148.13063
727 1 1 -0.0655 133.238556 170.239792 155.344864
705 1 1 -0.0395 121.526169 176.503952 156.006226
1305 1 1 -0.0161 61.125877 161.545883 173.942932
815 1 1 -0.0530 86.384209 156.394073 168.350342
1344 1 1 -0.0532 78.925407 158.3358 175.474625
477 1 1 -0.0048 51.859943 167.13327 156.516312
782 1 1 -0.0205 80.975143 143.66687 164.958939
22 1 1 -0.0364 75.197479 143.979355 146.062531
1182 1 1 -0.0471 130.324387 175.679565 160.125366
414 1 1 -0.0670 115.8591 156.818909 148.310257
466 1 1 -0.0265 140.217392 152.941055 157.64621
916 1 1 -0.0755 58.716034 159.653259 166.376205
1140 1 1 -0.0714 116.096336 173.424637 168.873886
556 1 1 -0.0744 92.694366 168.44693 153.142731
1132 1 1 -0.0437 112.498924 172.286819 163.436813
85 1 1 -0.0651 88.432091 155.568634 144.881027
554 1 1 -0.0286 90.818016 168.482513 156.060242
1165 1 1 -0.0507 124.287819 171.382401 169.875046
479 1 1 -0.0084 52.87175 159.226746 154.115967
13 1 1 -0.0162 70.010117 142.390121 144.31218
1497 1 1 -0.0115 77.856964 156.771027 186.761337
537 1 1 -0.0484 83.423332 163.826965 149.783463
303 1 1 -0.0305 80.607521 143.806274 154.113998
1236 1 1 -0.0902 77.425789 137.238678 177.615021
1158 1 1 -0.1120 121.816727 173.778992 169.681549
117 1 1 -0.0884 112.523094 156.817963 146.280319
38 1 1 -0.0211 72.619522 151.62178 142.60762
1427 1 1 -0.0077 72.830139 135.635178 186.630905
980 1 1 -0.0413 94.453568 166.220703 165.593552
390 1 1 -0.0441 102.43634 152.443054 149.542633
43 1 1 -0.0409 74.538933 155.907944 142.850769
1176 1 1 -0.0646 128.490692 178.240036 165.156464
1128 1 1 -0.0431 110.750702 174.639374 170.053986
1117 1 1 -0.0235 106.833687 169.129944 165.473236
149 1 1 -0.0549 85.492256 159.561722 144.88797
685 1 1 -0.0318 109.146042 170.329895 156.532776
1399 1 1 -0.0025 67.755066 134.028625 184.467361
630 1 1 -0.0307 136.271805 166.26889 153.694717
348 1 1 -0.0369 81.858055 147.91716 148.004883
623 1 1 -0.0222 133.930847 165.517685 157.091614
72 1 1 -0.0268 83.24498 148.377182 144.706451
1403 1 1 -0.0067 73.136345 132.89122 183.853149
384 1 1 -0.0431 100.338814 154.943787 158.864777
977 1 1 -0.0171 92.359375 168.358444 159.318405
296 1 1 -0.0357 76.900986 139.997589 155.647461
672 1 1 -0.0592 104.276443 170.199234 154.629898
125 1 1 -0.0807 78.373886 160.258102 140.236435
1093 1 1 -0.0128 48.477295 173.33197 168.917038
1349 1 1 -0.0501 82.557404 159.671387 180.688995
1174 1 1 -0.0659 127.845787 177.184845 160.153931
929 1 1 -0.0581 63.999634 163.465225 161.052155
80 1 1 -0.0500 86.563652 151.531555 142.482422
404 1 1 -0.1073 109.150902 156.49115 157.909607
1180 1 1 -0.1031 130.163208 174.961319 168.091019
1307 1 1 -0.0306 61.895435 158.365387 179.819351
145 1 1 -0.0827 85.030251 162.657883 144.966431
1528 1 1 -0.2947 76.170959 166.813065 183.466309
8 1 1 -0.0244 67.95771 138.335739 147.081207
1023 1 1 -0.0812 110.603699 159.30687 167.679733
545 1 1 -0.0184 84.792244 164.367279 156.361282
19 1 1 -0.0252 73.500435 143.030197 145.228165
600 1 1 -0.0349 123.607948 158.377228 150.86174
1300 1 1 -0.0289 58.791862 160.3564 171.230667
1014 1 1 -0.0552 106.624123 159.936493 167.978729
1217 1 1 -0.0640 77.563309 133.966736 174.512985
1065 1 1 -0.0554 136.815155 168.208527 166.049637
341 1 1 -0.0268 69.8899 156.674438 151.194794
593 1 1 -0.3635 121.06356 161.117172 150.148209
435 1 1 -0.0387 127.15744 150.863281 154.381531
890 1 1 -0.0436 132.080765 152.075928 160.057144
1046 1 1 -0.0346 123.488068 159.701889 167.497284
473 1 1 -0.0015 49.341568 165.387344 157.293839
696 1 1 -0.0132 117.028961 170.324326 157.9487
329 1 1 -0.0588 62.758293 150.579422 150.366653
1171 1 1 -0.0684 126.350418 170.692719 169.333435
488 1 1 -0.0361 58.165264 160.483322 153.042862
1018 1 1 -0.0282 107.429993 159.016205 163.216049
87 1 1 -0.0860 90.022308 155.72467 145.242859
93 1 1 -0.0576 95.631325 155.29126 146.137283
851 1 1 -0.0390 100.612755 152.507889 162.602798
517 1 1 -0.0141 72.877129 158.125229 154.640579
1033 1 1 -0.0196 117.280945 161.688934 165.635498
1489 1 1 -0.0318 75.173973 148.163498 181.639008
284 1 1 -0.0280 72.557098 141.572769 148.402893
627 1 1 -0.0233 134.421722 165.262741 150.468094
510 1 1 -0.0238 67.173958 159.499329 153.193359
15 1 1 -0.0197 71.563423 142.648911 144.247559
1465 1 1 -0.1718 65.0942 157.216751 182.665558
354 1 1 -0.0237 88.043015 147.335785 148.915039
1402 1 1 -0.0046 70.940628 133.955032 184.764313
212 1 1 -0.0981 115.192848 167.761261 143.709274
1187 1 1 -0.0441 132.672668 174.388992 161.888489
1535 1 1 -0.0162 78.734901 163.664291 186.826828
1415 1 1 0.0000 65.420143 139.394531 189.001404
886 1 1 -0.0230 130.571884 155.292908 162.987961
758 1 1 -0.0311 80.918282 131.050873 168.672241
587 1 1 -0.0838 118.897858 162.977203 149.013489
1514 1 1 -0.0317 70.109589 165.180603 185.960785
1193 1 1 -0.0382 134.120453 172.958023 164.335037
1049 1 1 -0.0285 124.853561 158.206238 166.832489
555 1 1 -0.0418 92.451759 168.013397 154.595291
83 1 1 -0.0329 87.730255 151.499863 145.288116
1255 1 1 -0.0562 74.000481 157.03714 174.048035
613 1 1 -0.0146 130.776001 162.880661 151.945648
860 1 1 -0.0340 114.779617 157.206055 162.158203
516 1 1 -0.0138 72.597481 157.501465 158.938934
740 1 1 -0.0397 74.070045 125.704353 162.019241
55 1 1 -0.2017 77.735146 146.965652 144.434952
967 1 1 -0.0155 87.590576 164.98291 161.581329
1295 1 1 -0.0417 57.346592 158.949509 170.522186
141 1 1 -0.0764 83.855194 160.417206 147.281372
1505 1 1 -0.0200 83.649956 152.302002 182.400055
831 1 1 -0.0658 91.903481 149.109604 159.666687
1532 1 1 -0.0464 77.282333 165.218658 186.381027
838 1 1 -0.0304 94.510345 148.905426 165.546646
1452 1 1 -0.0055 59.408787 151.547562 183.654724
756 1 1 -0.0273 80.367966 129.572479 168.223175
1400 1 1 -0.0025 68.290733 132.262344 182.556702
960 1 1 -0.0338 83.35067 161.288071 159.509277
207 1 1 -0.0966 114.519318 168.458817 145.969711
969 1 1 -0.0140 88.505371 166.916824 159.404205
1423 1 1 -0.0005 69.455879 138.307312 188.382416
1099 1 1 -0.0124 51.628124 170.395355 159.808517
695 1 1 -0.0110 116.542732 172.188324 158.317551
322 1 1 -0.0331 59.7001 156.082336 152.456375
797 1 1 -0.0263 80.545792 147.994843 168.517838
1491 1 1 -0.1234 75.322792 151.436386 182.204437
1242 1 1 -0.0158 78.516617 145.830795 172.470734
993 1 1 -0.0503 98.885727 160.377731 166.642899
114 1 1 -0.0881 109.276337 155.147949 147.170761
1411 1 1 -0.0001 63.44173 139.567627 189.035172
484 1 1 -0.0125 54.696991 158.66217 153.604752
436 1 1 -0.0147 127.472038 156.181183 151.143463
530 1 1 -0.0742 78.608322 159.470871 150.721161
1267 1 1 -0.0858 77.269768 154.605453 170.997849
146 1 1 -0.0406 85.187584 160.121872 140.938293
1121 1 1 -0.0359 107.962318 170.38768 164.344482
1479 1 1 0.0100 71.849167 146.676666 188.156219
759 1 1 -0.0606 76.31411 139.341965 168.535568
1524 1 1 -0.0146 74.446465 157.700455 188.480331
139 1 1 -0.0883 83.543701 162.573685 147.49588
416 1 1 -0.0406 117.281387 155.873657 149.266617
181 1 1 -0.0260 101.938583 165.332642 144.095947
485 1 1 -0.0175 56.062038 164.719376 152.751251
882 1 1 -0.0516 128.370224 156.95932 166.728271
458 1 1 -0.0184 136.312256 153.63858 150.548538
156 1 1 -0.0571 87.773277 159.427841 144.244827
914 1 1 -0.0670 58.339436 163.447113 165.445465
724 1 1 -0.0771 131.458023 171.886185 154.172394
939 1 1 -0.0236 70.164871 158.804688 160.577148
576 1 1 -0.0489 114.814774 168.270386 149.556122
755 1 1 -0.0540 80.119957 135.106796 169.438461
368 1 1 -0.0987 94.663078 153.639328 147.881302
1499 1 1 -0.0172 78.535393 155.674606 185.71167
946 1 1 -0.0138 74.475349 157.475723 162.921631
1374 1 1 -0.0820 131.803818 161.778931 172.353622
460 1 1 -0.0373 137.266052 151.491684 157.72554
1214 1 1 -0.0123 76.003471 125.746307 171.766663
196 1 1 -0.0482 109.109825 163.904816 139.210739
1325 1 1 -0.1631 71.034126 158.702332 174.092041
564 1 1 -0.2132 97.278214 163.91629 148.336288
528 1 1 -0.0569 77.934906 159.925888 152.348557
258 1 1 -0.0765 70.66291 130.551437 149.105682
285 1 1 -0.0553 73.225807 141.610382 150.153107
1141 1 1 0.0014 116.308243 174.812637 159.444183
135 1 1 -0.1116 81.387299 160.488403 145.324615
1053 1 1 -0.0390 126.492653 158.106201 167.86055
921 1 1 -0.1023 60.873047 162.320084 163.417419
1417 1 1 -0.0013 66.697334 136.907028 187.154724
1197 1 1 -0.0010 67.741989 129.349594 178.463104
1035 1 1 -0.0234 118.297905 159.098816 164.71666
853 1 1 -0.0203 100.931381 157.466599 162.143402
590 1 1 -0.0574 120.519585 167.047897 153.327072
142 1 1 -0.0433 83.885612 161.000748 140.843048
215 1 1 -0.1039 116.490166 165.705734 141.724945
1416 1 1 -0.0019 66.679146 135.489182 185.987335
746 1 1 -0.0408 77.36274 132.296158 159.447128
842 1 1 -0.0427 96.867149 148.886002 164.010635
693 1 1 -0.0254 113.418205 169.276917 153.825912
605 1 1 -0.0329 127.052765 164.629898 150.16333
1133 1 1 -0.0975 113.269547 174.398102 166.753922
834 1 1 -0.0351 93.151344 149.449036 167.362381
1257 1 1 -0.0412 74.636406 149.069702 175.580551
1147 1 1 -0.0424 118.173737 170.674469 170.141098
1320 1 1 -0.0412 68.928215 159.947876 171.484131
1207 1 1 -0.0010 72.824722 129.204239 178.824295
953 1 1 -0.0304 79.391129 160.237396 165.908279
350 1 1 -0.0234 83.851082 147.146423 148.783615
940 1 1 -0.0210 70.638153 158.724762 162.055603
102 1 1 -0.0430 100.997612 152.203064 143.929169
31 1 1 -0.0282 67.548157 151.693771 145.266312
1480 1 1 -0.0186 72.04641 149.730408 186.407578
190 1 1 -0.0236 106.431801 163.708344 139.918167
716 1 1 -0.0667 127.172485 172.407654 153.374725
1019 1 1 -0.0658 108.779442 158.356186 165.918579
1264 1 1 -0.0679 76.55426 151.102707 171.179871
1006 1 1 -0.0252 104.611488 168.445023 161.930542
710 1 1 -0.0465 124.879066 169.767258 151.65593
753 1 1 -0.0440 79.344269 133.920288 165.659836
373 1 1 -0.1796 97.549736 152.913559 155.260132
1247 1 1 -0.0285 78.885674 140.509277 180.539856
867 1 1 -0.0316 120.057198 157.105377 164.766312
865 1 1 -0.0230 119.557487 154.153595 159.926483
152 1 1 -0.0493 86.094177 159.241562 142.970535
850 1 1 -0.0286 100.416031 155.356247 160.97551
622 1 1 -0.0393 133.777893 167.313004 153.964935
1373 1 1 -0.1052 130.562592 160.008331 171.26033
471 1 1 -0.0147 141.461411 155.930328 155.353119
1200 1 1 -0.0009 68.933701 127.263618 174.639557
289 1 1 -0.0710 73.909721 138.81723 154.269302
519 1 1 -0.0209 74.120972 159.93959 157.229401
720 1 1 -0.0770 128.542572 171.282776 151.878525
589 1 1 -0.0765 119.631706 158.941254 148.876709
994 1 1 -0.0194 99.108063 166.827789 163.096558
791 1 1 -0.0510 77.330452 151.299301 169.746231
423 1 1 -0.0314 119.91748 153.608963 152.048492
1433 1 1 -0.0066 74.934769 146.228928 187.156342
195 1 1 -0.0411 108.986862 168.043533 140.237762
349 1 1 -0.0262 83.35022 147.282333 158.175812
585 1 1 -0.0940 117.983345 159.077332 147.873825
803 1 1 -0.0192 83.067993 147.108612 160.851379
1413 1 1 -0.0010 64.519707 136.573593 186.7883
462 1 1 -0.0157 137.841507 154.017776 151.196609
421 1 1 -0.0268 119.27565 153.554932 158.522568
160 1 1 -0.0988 90.678467 168.073669 143.983734
788 1 1 -0.0121 74.477562 156.655487 164.293411
1353 1 1 -0.0643 107.79071 166.23082 171.138489
711 1 1 -0.0441 124.970329 172.209702 153.885208
962 1 1 -0.0165 85.612801 161.713806 159.433838
179 1 1 -0.0376 100.990562 164.291321 145.050354
607 1 1 -0.0150 128.472763 157.791885 150.341644
406 1 1 -0.1385 110.363968 155.495712 149.116196
1161 1 1 -0.0963 122.25206 178.978241 160.138367
863 1 1 -0.0270 117.962616 155.105103 160.368973
1149 1 1 -0.0529 118.503197 175.857254 166.137817
594 1 1 -0.0576 121.656837 166.396896 152.224487
240 1 1 -0.0630 91.845993 170.052063 146.97789
531 1 1 -0.0598 78.954834 160.934464 153.522263
1506 1 1 -0.0186 84.111748 156.347672 182.552795
239 1 1 -0.0717 89.779099 169.93718 145.208511
208 1 1 -0.1044 114.547623 158.174515 146.266205
291 1 1 -0.3819 74.489967 142.22406 152.875427
1362 1 1 -0.2310 115.877243 165.99527 172.664505
577 1 1 -0.0198 114.87767 168.101303 156.102905
1020 1 1 -0.0378 108.930618 158.506104 163.960648
1079 1 1 -0.0439 140.964386 160.379349 163.433014
1541 1 1 -0.0375 80.688629 163.50415 183.289154
1262 1 1 -0.1069 75.952408 152.755981 177.007828
726 1 1 -0.0813 132.98259 169.951431 153.663147
1241 1 1 -0.0788 78.198067 136.520325 180.128632
995 1 1 -0.0537 99.675941 164.263626 165.742386
1486 1 1 -0.0587 74.390076 150.220123 181.63942
1336 1 1 -0.0642 74.402588 158.776611 174.55809
468 1 1 -0.0156 140.946823 154.19577 155.221313
235 1 1 -0.0538 85.281647 168.773514 147.081711
885 1 1 -0.0235 129.933731 152.58992 162.69957
847 1 1 -0.0194 99.985847 157.21283 160.455719
986 1 1 -0.0248 96.4533 167.024048 164.338455
498 1 1 -0.0313 61.752682 167.07074 157.110703
20 1 1 -0.0313 74.273224 143.333801 147.425491
1185 1 1 -0.1468 131.996094 171.430939 159.221313
333 1 1 -0.0765 64.551132 151.765274 150.456955
210 1 1 -0.0582 114.699364 168.467834 147.652893
86 1 1 -0.0336 89.102432 151.2565 146.468658
433 1 1 -0.0409 125.714027 149.353851 156.517075
609 1 1 -0.0163 129.15004 161.600967 150.776657
604 1 1 -0.0197 126.769936 159.439209 150.878799
912 1 1 -0.0240 57.924007 166.083115 168.011871
497 1 1 -0.0327 61.636707 166.828491 155.619186
490 1 1 -0.0591 58.631741 162.160736 152.757401
750 1 1 -0.0385 78.951057 134.410751 160.549896
584 1 1 -0.0668 117.885292 164.876984 149.062622
1190 1 1 -0.1057 133.647552 171.523407 161.084671
431 1 1 -0.0237 124.157814 156.555649 150.558899
881 1 1 -0.0186 127.529907 151.41893 163.863983
1462 1 1 -0.0591 64.169403 154.767975 182.896255
442 1 1 -0.0176 129.438934 154.049988 150.854675
677 1 1 -0.0475 106.007393 170.387314 154.839828
1466 1 1 -0.0108 65.299294 151.311432 186.826752
469 1 1 -0.0126 141.027695 155.963593 152.42305
1392 1 1 -0.0267 112.336952 171.45372 173.235184
725 1 1 -0.1049 131.507416 171.014938 152.750931
817 1 1 -0.0382 87.15918 149.945602 165.993149
1186 1 1 -0.1048 132.251801 170.636887 168.832428
1475 1 1 -0.0086 69.652008 149.932449 186.972122
214 1 1 -0.0765 116.205605 160.547272 141.668472
961 1 1 -0.0310 83.897545 160.456177 161.507523
739 1 1 -0.0459 73.922302 124.991211 165.737488
455 1 1 -0.0472 135.201874 151.519089 157.897797
1162 1 1 -0.0599 123.329765 178.479965 167.545761
790 1 1 -0.0344 77.050858 149.784805 170.111298
1384 1 1 -0.0128 51.811729 171.113281 171.118683
1043 1 1 -0.0301 122.088791 158.574677 166.461975
1428 1 1 0.0591 72.887665 143.433777 188.511032
360 1 1 -0.0387 90.029747 149.377411 153.470291
300 1 1 -0.0474 78.541351 139.049301 158.536087
472 1 1 -0.0224 141.833801 157.248444 157.553238
595 1 1 -0.0596 122.263809 159.090897 150.709488
546 1 1 -0.0170 85.032974 162.178268 158.07579
1004 1 1 -0.0421 104.233566 162.721832 166.381683
1404 1 1 -0.0113 74.17469 135.068054 186.21405
11 1 1 -0.0204 69.729477 144.100754 142.612289
616 1 1 -0.0197 131.572845 164.308426 151.689301
709 1 1 -0.1102 124.296799 178.095642 158.45459
316 1 1 -0.0207 57.628639 156.540283 153.294708
1460 1 1 -0.0017 63.849842 148.002869 192.605423
317 1 1 -0.0169 57.743675 152.72522 153.228012
868 1 1 -0.0273 121.080666 154.910095 163.652954
1031 1 1 -0.0189 116.077232 160.933105 164.971359
1483 1 1 -0.0492 73.477989 150.282852 185.175385
543 1 1 -0.0296 84.325783 164.496017 152.718002
1318 1 1 -0.0398 67.997314 159.932922 173.928955
381 1 1 -0.0375 98.936165 152.883224 147.858932
781 1 1 -0.0512 80.60643 141.606354 160.700302
501 1 1 -0.0354 63.126743 165.623489 157.669876
776 1 1 -0.0160 79.420189 144.11557 169.391342
666 1 1 -0.1252 93.357307 169.288193 151.123901
1340 1 1 -0.0977 76.266907 160.647949 175.754898
1316 1 1 -0.0223 67.274033 160.524185 171.370911
869 1 1 -0.0257 121.217384 151.781479 159.582321
434 1 1 -0.0198 126.436852 153.576935 151.512466
754 1 1 -0.0300 79.554428 128.210724 168.675217
1189 1 1 -0.0405 133.595016 172.880127 166.161774
830 1 1 -0.0658 91.510826 155.160477 169.162842
527 1 1 -0.0437 77.561996 161.661606 158.678314
922 1 1 -0.1198 60.922661 165.417938 161.87262
920 1 1 -0.0393 60.337612 168.01413 160.469208
983 1 1 -0.0608 96.028557 164.970016 166.601013
486 1 1 -0.0121 56.193203 168.33931 154.823441
1081 1 1 -0.1183 141.419693 164.507446 163.125122
1104 1 1 -0.0184 54.068001 171.610046 162.115051
64 1 1 -0.0360 80.875763 150.275177 138.647903
832 1 1 -0.0713 92.359543 157.452499 168.013016