LAMMPS data file. CGCMM style.
 18 atoms
 17 bonds
 16 angles
 15 dihedrals
 0 impropers
 2 atom types
 1 bond types
 1 angle types
 1 dihedral types
 0 improper types

 0  1000  xlo xhi          #-2.950000 9.868000
 0  1000  ylo yhi         # -6.784000 11.824000
 0  1000  zlo zhi         #-11.057000 7.885000

 Masses

 1 12.000 # CH2
 2 12.000

 Atoms # full

1 1 1 0.000000 137.401 157.003 156.789 # C UNL
2 1 2 0.000000 138.7791 157.56 156.2565 # C UNL
3 1 1 0.000000 137.5006 157.01 156.757 # C UNL
4 1 1 0.000000 136.0283 156.9647 156.8905 # C UNL
5 1 2 0.000000 134.6441 157.2883 156.4814 # C UNL
6 1 1 0.000000 133.1739 157.187 156.6074 # C UNL
7 1 1 0.000000 131.7085 157.0493 156.7546 # C UNL
8 1 2 0.000000 130.2691 157.1316 157.0856 # C UNL
9 1 1 0.000000 128.9668 157.7613 157.3955 # C UNL
10 1 1 0.000000 127.628 158.3238 157.6764 # C UNL
11 1 2 0.000000 126.2549 158.8139 157.9255 # C UNL
12 1 1 0.000000 125.487 160.0516 158.1836 # C UNL
13 1 1 0.000000 124.7012 161.2456 158.5639 # C UNL
14 1 2 0.000000 123.2755 161.6338 158.6296 # C UNL
15 1 1 0.000000 121.9452 161.3692 158.0397 # C UNL
16 1 1 0.000000 120.6371 161.0429 157.4316 # C UNL
17 1 2 0.000000 119.4681 160.5464 156.6736 # C UNL
18 1 1 0.000000 118.471 160.6746 155.5886 # C UNL

 Bonds

1 1 1 2
2 1 2 3
3 1 3 4
4 1 4 5
5 1 5 6
6 1 6 7
7 1 7 8
8 1 8 9
9 1 9 10
10 1 10 11
11 1 11 12
12 1 12 13
13 1 13 14
14 1 14 15
15 1 15 16
16 1 16 17
17 1 17 18

 Angles

1 1 1 2 3
2 1 2 3 4
3 1 3 4 5
4 1 4 5 6
5 1 5 6 7
6 1 6 7 8
7 1 7 8 9
8 1 8 9 10
9 1 9 10 11
10 1 10 11 12
11 1 11 12 13
12 1 12 13 14
13 1 13 14 15
14 1 14 15 16
15 1 15 16 17
16 1 16 17 18

 Dihedrals

1 1 1 2 3 4
2 1 2 3 4 5
3 1 3 4 5 6
4 1 4 5 6 7
5 1 5 6 7 8
6 1 6 7 8 9
7 1 7 8 9 10
8 1 8 9 10 11
9 1 9 10 11 12
10 1 10 11 12 13
11 1 11 12 13 14
12 1 12 13 14 15
13 1 13 14 15 16
14 1 14 15 16 17
15 1 15 16 17 18
